pydonof
Energy PNOF7s CC-PVDZ
Number of atoms                            I                3
Charge                                     I                0
Multiplicity                               I                1
Number of electrons                        I               10
Number of alpha electrons                  I                5
Number of beta electrons                   I                5
Number of basis functions                  I               25
Number of independant functions            I                9
Number of contracted shells                I               12
Highest angular momentum                   I                2
Largest degree of contraction              I                8
Number of primitive shells                 I               32
Atomic numbers                             I   N=           3
           8           1           1
Nuclear Charges                            R   N=           3
  8.00000000e+00  1.00000000e+00  1.00000000e+00
Current cartesian coordinates              R   N=           9
  0.00000000e+00  0.00000000e+00  1.17739306e-01  0.00000000e+00  1.43405344e+00
 -9.34304110e-01  0.00000000e+00 -1.43405344e+00 -9.34304110e-01
Shell types                                I   N=          12
           0           0           0           1           1           2
           0           0           1           0           0           1
Number of primitives per shell             I   N=          12
           8           8           1           3           1           1
           3           1           1           3           1           1
Shell to atom map                          I   N=          12
           1           1           1           1           1           1
           2           2           2           3           3           3
Coordinates of each shell                  R   N=          36
  0.00000000e+00 -1.43405344e+00 -9.34304110e-01  0.00000000e+00 -1.43405344e+00
 -9.34304110e-01  0.00000000e+00 -1.43405344e+00 -9.34304110e-01  0.00000000e+00
 -1.43405344e+00 -9.34304110e-01  0.00000000e+00 -1.43405344e+00 -9.34304110e-01
  0.00000000e+00 -1.43405344e+00 -9.34304110e-01  0.00000000e+00  0.00000000e+00
  1.17739306e-01  0.00000000e+00  0.00000000e+00  1.17739306e-01  0.00000000e+00
  0.00000000e+00  1.17739306e-01  0.00000000e+00  1.43405344e+00 -9.34304110e-01
  0.00000000e+00  1.43405344e+00 -9.34304110e-01  0.00000000e+00  1.43405344e+00
 -9.34304110e-01
Total Energy                               R     -7.608913784021433e+01
Primitive exponents                        R   N=          32
  1.17200000e+04  1.75900000e+03  4.00800000e+02  1.13700000e+02  3.70300000e+01
  1.32700000e+01  5.02500000e+00  1.01300000e+00  1.17200000e+04  1.75900000e+03
  4.00800000e+02  1.13700000e+02  3.70300000e+01  1.32700000e+01  5.02500000e+00
  1.01300000e+00  3.02300000e-01  1.77000000e+01  3.85400000e+00  1.04600000e+00
  2.75300000e-01  1.18500000e+00  1.30100000e+01  1.96200000e+00  4.44600000e-01
  1.22000000e-01  7.27000000e-01  1.30100000e+01  1.96200000e+00  4.44600000e-01
  1.22000000e-01  7.27000000e-01
Contraction coefficients                   R   N=          32
  7.10000000e-04  5.47000000e-03  2.78370000e-02  1.04800000e-01  2.83062000e-01
  4.48719000e-01  2.70952000e-01  1.54580000e-02 -1.60000000e-04 -1.26300000e-03
 -6.26700000e-03 -2.57160000e-02 -7.09240000e-02 -1.65411000e-01 -1.16955000e-01
  5.57368000e-01  1.00000000e+00  4.30180000e-02  2.28913000e-01  5.08728000e-01
  1.00000000e+00  1.00000000e+00  1.96850000e-02  1.37977000e-01  4.78148000e-01
  1.00000000e+00  1.00000000e+00  1.96850000e-02  1.37977000e-01  4.78148000e-01
  1.00000000e+00  1.00000000e+00
Alpha Orbital Energies                     R   N=          25
 -2.05414393e+01 -8.70980465e-01 -8.70965076e-01 -7.16151361e-01 -7.15021772e-01
 -1.72298624e-02 -1.72298171e-02 -8.50957117e-03 -8.50063361e-03  0.00000000e+00
  0.00000000e+00  0.00000000e+00  0.00000000e+00  0.00000000e+00  0.00000000e+00
  0.00000000e+00  0.00000000e+00  0.00000000e+00  0.00000000e+00  0.00000000e+00
  0.00000000e+00  0.00000000e+00  0.00000000e+00  0.00000000e+00  0.00000000e+00
Alpha MO coefficients                      R   N=         625
 -1.00104476e+00  5.79912884e-03  9.45697715e-03  5.72266444e-05  9.41578840e-08
  4.91965396e-03  4.48931606e-05  3.81471292e-08  2.96062875e-03  1.32616277e-03
  1.25529067e-08 -2.78381944e-06  1.11020192e-03 -7.94856284e-09  1.00822232e-03
  1.66890188e-03 -3.28944819e-04  2.78829833e-06 -8.12169676e-04  7.24278077e-04
  1.66878500e-03 -3.28974214e-04  2.79196416e-06  8.12160645e-04  7.24264686e-04
 -2.40125413e-03 -1.63736356e-01 -1.59462674e-02  6.19508795e-04  3.50314698e-01
  3.03350741e-01  4.77890764e-04  1.43124402e-01  1.62123648e-01  4.03239125e-03
 -3.53824192e-06 -3.31244213e-05 -4.22958932e-03 -3.41936855e-02 -1.32929569e-02
  3.52522744e-02  3.51439341e-02  2.95738829e-05  1.67984355e-02  1.67666572e-02
 -4.43279135e-01 -8.29254961e-02  3.57153671e-05 -4.81236560e-02 -2.52314499e-02
 -2.40138565e-03 -1.63725199e-01 -1.59312131e-02  6.18837973e-04 -3.50312946e-01
  3.03363572e-01  4.77428551e-04 -1.43123979e-01  1.62133250e-01  4.03308397e-03
  3.90061362e-06 -3.30343842e-05 -4.22946514e-03  3.41936255e-02 -1.32933993e-02
 -4.43279093e-01 -8.29260101e-02  3.55397963e-05  4.81231956e-02 -2.52302355e-02
  3.52494071e-02  3.51427989e-02  2.94476516e-05 -1.67986968e-02  1.67669869e-02
  5.43291737e-03  2.86265033e-01  3.61719065e-01 -4.43385993e-01  8.05232391e-06
  2.53914196e-01 -3.50894574e-01  3.57589381e-06  2.04944977e-01  2.55750291e-03
 -6.82896844e-08  2.12285500e-02 -2.37025288e-04 -7.55361973e-07 -1.23703711e-02
 -1.26064483e-02 -1.42036222e-02 -2.18514462e-02 -3.23711362e-03  1.46532886e-02
 -1.26166287e-02 -1.42060210e-02 -2.18514636e-02  3.23632570e-03  1.46523730e-02
  5.53840954e-03  2.85198281e-01  3.59870376e-01  4.45767758e-01  7.52803316e-06
  2.51694480e-01  3.52792197e-01  3.26554487e-06  2.03378246e-01  2.53824805e-03
 -1.20252661e-07 -2.13515064e-02 -2.32484193e-04 -6.57124077e-07 -1.22755832e-02
 -1.20177516e-02 -1.40807392e-02  2.19698558e-02 -3.31878170e-03  1.45907094e-02
 -1.20273301e-02 -1.40825923e-02  2.19699809e-02  3.31817349e-03  1.45898623e-02
 -1.18242872e-01 -4.26606495e-01 -2.24755421e-01  8.90769327e-04 -6.28661006e-01
  4.99468567e-01 -7.98020730e-04 -9.95639607e-02  1.60431091e-02  6.23893399e-02
  2.13009596e-04 -1.84709361e-04 -9.23508957e-03  1.43836160e-01 -4.55943855e-03
  9.88636014e-01  1.32458695e-01 -2.40966423e-04 -5.82163788e-02  8.54959572e-03
 -1.28261478e-02 -3.35473966e-02 -2.82432154e-05 -1.08553728e-03 -6.18472548e-03
 -1.18253966e-01 -4.26634027e-01 -2.24729658e-01  8.90596418e-04  6.28667370e-01
  4.99451592e-01 -7.97339211e-04  9.95587261e-02  1.60593088e-02  6.23887174e-02
 -2.12279731e-04 -1.86533728e-04 -9.23724141e-03 -1.43842902e-01 -4.55631621e-03
 -1.28276599e-02 -3.35466872e-02 -2.85734267e-05  1.08654086e-03 -6.18415264e-03
  9.88636103e-01  1.32457013e-01 -2.41908580e-04  5.82167470e-02  8.55443757e-03
  3.43854304e-01  9.01681623e-01 -7.65525495e-01  6.73789397e-01  1.21540401e-05
  4.51690169e-01 -6.96140323e-01 -6.29908422e-06 -4.36823461e-01  6.50291213e-02
  6.64513481e-05  2.52775601e-01 -2.07914068e-01  9.86612578e-06 -1.15010093e-01
  7.87789023e-02 -4.64467911e-03 -1.77578119e-02 -3.51835727e-02  8.57190927e-03
  7.87835309e-02 -4.64225270e-03 -1.77298596e-02  3.51814345e-02  8.57226184e-03
  3.44788671e-01  9.04214975e-01 -7.67328664e-01 -6.70289959e-01  1.23358149e-05
  4.55558769e-01  6.92730200e-01 -9.14432014e-06 -4.40555192e-01  6.26263689e-02
 -3.04307433e-05 -2.55810739e-01 -2.08588332e-01  8.68240105e-06 -1.13320269e-01
  7.88871321e-02 -4.63673286e-03  1.73063509e-02 -3.52746285e-02  8.76978016e-03
  7.88896742e-02 -4.63701977e-03  1.72941634e-02  3.52721916e-02  8.76887067e-03
  8.53314428e-02  2.25137167e-01 -7.90466498e-02 -6.92551807e-03 -8.81137566e-04
 -8.00448205e-02  5.43694835e-03  1.31043534e-02  3.90359282e-01  2.24976176e-01
  3.86710357e-03  5.19859302e-02  7.02973517e-01 -2.30808307e-02 -1.15199571e+00
  8.53526988e-02 -1.66516096e-04  9.63568624e-04 -1.89980059e-01 -3.89282890e-01
  1.04319143e-01  5.74582789e-03  5.89002547e-03  1.96144048e-01 -3.86289185e-01
 -3.98449090e-03 -1.13376110e-03  4.83677757e-02 -1.72267440e-01  4.57522012e-04
  1.18490418e-02 -1.43899458e-01  7.23312152e-03 -3.54234950e-02 -6.50852265e-02
 -1.61203921e-02  1.76836571e+00  1.22837958e-02 -1.51124872e-02  3.36951538e-02
 -3.52434936e-02 -3.38360807e-03  4.14318004e-01  5.33106955e-03 -1.24871479e-03
 -2.17554392e-02 -4.08815649e-03  4.19763205e-01 -1.06329998e-03  2.01845576e-03
  1.96380674e-02 -2.04557139e-01 -2.19132497e+00 -9.00364336e-03  6.28662796e-04
  1.48719714e-01 -1.42059989e-03 -4.08698422e-03  1.01030203e+00  1.26649567e+00
  3.37979386e-01  7.66485071e-02 -6.48241659e-01 -4.73533300e-03 -2.11792884e-02
  1.10216102e+00  2.07241689e-01 -9.12708709e-02 -5.83563566e-01  4.09062713e-01
  1.09876551e+00  2.07757557e-01  1.20094176e-01  5.85941449e-01  4.05051138e-01
  2.03026869e-02  3.73599817e-02 -1.25817598e-01 -2.64007414e-04 -5.67676542e-01
 -5.16596684e-03  1.82961314e-03 -1.39311887e+00  5.65081525e-02 -1.30977068e-03
 -3.08400709e-02  1.21699901e-03  1.25912869e-02  6.78823517e-01  6.75941586e-03
  1.06985960e+00  4.80685800e-01 -2.74201411e-04 -9.22483391e-01  7.55992652e-01
 -9.05952645e-01 -5.21914558e-01 -3.22637620e-03 -9.15697866e-01 -7.00317577e-01
 -1.66253105e-01 -3.54561894e-01  5.73723269e-01 -1.22794426e-02 -2.81854261e-02
  8.57970911e-02  9.40371971e-02  6.66108416e-02 -3.04385545e-01  2.19241321e-01
 -1.20072258e+00  4.94844220e-02 -1.63924615e-01 -1.24839754e-02 -6.24122016e-02
 -2.53802474e-01 -9.62965939e-02  5.59050026e-01 -3.41931806e-02  1.02046444e-02
 -3.15557230e-01  1.70583738e-01 -7.42805936e-01  2.11022879e-02  9.01189905e-03
  3.98120982e-01  7.13012567e-01 -2.38280199e+00 -4.46581438e-03 -2.73612591e-02
 -1.42793374e-01  4.87012969e-02  2.16108854e-01  1.29831165e+00  9.19837310e-02
 -5.76274581e-01  8.65472468e-03  1.20696551e-01 -1.99024801e-02  1.76416210e-01
  1.09002944e+00 -3.11342849e-03  1.91470364e-01 -2.46728154e-01 -2.06023521e-03
  1.38935938e+00 -7.93349060e-02 -2.92027756e-01  2.73743165e-01  9.13948820e-02
 -2.69452276e-01 -5.43324605e-01 -3.96844779e-01 -6.84950713e-03  8.52614326e-02
  6.35406554e-01  1.06415389e-01 -1.30144207e-01  3.55786726e-03 -2.38202283e-01
 -5.21295586e-03 -3.19445302e-03  2.07517023e-02 -6.82005086e-03 -1.62690715e-01
  4.27238173e-01  4.42506239e-02 -1.25500239e-01 -7.87307800e-01  4.50824676e-01
  3.93294657e-01 -1.40719261e-01 -1.02439472e-01  7.79427406e-01  5.65041658e-01
  1.28713969e-01  2.42918243e-01 -9.31247378e-01  1.92919848e-02 -1.23954729e-02
  3.36830846e-02 -1.80044114e-01 -2.09727468e-01  1.78391954e-01 -5.18482360e-02
  1.01295506e+00 -5.65833701e-02  8.16047843e-02  1.37560404e-02  2.81858164e-02
  3.39795080e-02  6.38451494e-01  5.10054494e-01 -5.78528458e-02  3.11459410e-01
  5.10595921e-02  1.10402187e-01 -1.46159474e-01  1.48362114e-01  1.84700400e-02
  1.90053975e-01  3.35251194e-01 -1.18113876e+00 -1.11757451e-02  6.04411407e-01
 -4.24505038e-02  1.07205069e-01 -1.30611990e+00  5.75614740e-01  4.66302905e-02
 -3.98212143e-02  3.27966797e-02  3.30579691e-02 -4.93702233e-02  9.76764270e-02
  6.37071521e-01  7.49577356e-01 -1.14105011e-01 -1.37466272e-01 -3.36143443e-01
 -3.35058370e-01  1.03324015e-01 -1.03355254e-01  3.55296668e-01 -2.96019427e-02
 -6.18481721e-03 -1.39984963e-02 -1.77203406e-02 -1.06207439e-02  5.88210751e-02
  1.35695935e-02  9.75113121e-02 -8.27709897e-01  1.24226251e-02 -4.56136084e-04
 -1.74148924e-01  3.29152935e-02 -2.72762368e-04 -3.81698978e-02 -1.33363178e-03
  4.23841300e-01 -3.73353032e-02 -1.43770497e-01  5.00529370e-01  6.61416123e-01
 -3.23118282e-01 -3.36113788e-02 -5.27816739e-02  5.28738876e-01 -6.11572005e-01
 -7.06524184e-04  3.14492298e-05  7.98955289e-03 -1.45032099e-03 -9.91868435e-02
 -1.04274028e-04  5.61899872e-04 -7.97542872e-01  1.14327614e-03  4.15475190e-03
  3.30928464e-03  1.34560181e-02  2.31864970e-03  2.20223116e+00 -1.43523053e-02
  7.48408705e-01  1.05925595e-01  6.94844528e-03 -2.88680981e-01  1.86551685e-01
 -7.53791630e-01 -1.03713009e-01 -4.06786375e-03 -2.83458820e-01 -1.95633204e-01
  2.00945373e-02  3.33908495e-02  2.84795690e-02 -9.25345257e-03  2.96653598e-01
 -7.33795010e-02  6.07558457e-02 -4.85621511e-01 -5.25572606e-01  9.07519780e-02
 -2.18830617e-01  4.17678682e-02  6.92169359e-02 -4.84245005e-02 -1.01976810e-02
 -1.53758025e-02  1.29323953e-01 -4.31233349e-02  5.15397175e-01  3.78054008e-01
 -3.53941125e-01 -5.93032613e-02 -7.18965207e-02 -3.73291875e-01  6.42200406e-01
 -2.66810097e-01 -4.61211605e-01  2.16085942e+00  7.84569361e-03  2.78769493e-01
 -7.15932619e-02 -8.33256893e-02 -5.39045218e-01 -4.78906424e-01 -9.12286588e-02
  4.15644187e-01 -1.73326358e-02 -6.82015874e-02 -4.83239040e-02 -8.66985238e-02
  2.08849686e-01 -9.51419211e-01  2.05764221e-01  4.00495954e-01 -3.38317219e-01
 -2.75967478e-01 -9.67980278e-01 -3.43205765e-02 -2.12418923e-01 -1.95295619e-01
 -6.80985818e-02 -1.25649674e-01  5.18067002e-01 -4.69088748e-03  6.01953113e-02
 -2.01575064e-02  3.99019091e-02 -7.68526987e-01 -1.77954565e-01  2.39911935e-02
 -1.80595957e-01  1.60353973e-02 -3.62690780e-02  1.48712658e-01 -2.00139239e-02
 -4.65828112e-01  1.59882998e+00 -4.54374447e-02 -7.41988061e-02  1.28758211e-01
  2.13881091e-01 -1.84931935e+00 -3.40338266e-02 -2.55442859e-01 -2.45524165e-01
 -9.55907709e-03 -3.98298210e-02 -3.18409091e-01  7.97336935e-02  1.04882575e-01
  8.26057212e-02 -7.04500520e-01 -2.82837906e-01  1.01619660e-01  4.82278042e-02
 -5.65752219e-01 -2.65875587e-01 -1.14723142e-02 -3.98881927e-03 -1.99932983e-02
  2.08556390e-01  1.54917903e-01  7.04091495e-01 -8.86781753e-02  1.09000774e-01
  1.78983008e-02 -1.77447267e-02  7.07306236e-01  2.05371548e-01  5.78277906e-02
 -1.92729569e-01 -1.32452049e+00 -1.50903008e+00  4.79273763e-04 -6.78642645e-03
 -1.13796746e-01 -7.34095944e-04  1.19772563e-02 -2.36032961e-01  1.28014343e+00
  2.24052691e-02 -3.05616892e-03  1.73420375e+00  3.51258502e-03  1.44062491e+00
 -4.02218778e-01  1.74806360e-01 -4.80625146e-03  2.80055459e-01 -2.71567588e-01
 -3.96169017e-01  1.83700893e-01  5.17578035e-03 -2.83254934e-01 -2.76544045e-01
Total SCF Density                          R   N=          325
  2.00649441e+00  2.35701957e-03  4.49639610e-01 -1.37594504e-02  4.14726760e-01
  5.30135188e-01  3.56433535e-06  1.55624058e-05  7.44923980e-06  7.94231072e-01
  1.68969940e-08  4.38296800e-07  8.52917728e-07  3.82755575e-08  5.00160250e-01
 -6.99108808e-03  8.95757638e-02  3.35668591e-01 -9.91243062e-06 -1.22068688e-07
  6.31185078e-01 -4.46446542e-06  1.23826723e-05  6.17267234e-05  6.16787287e-01
 -7.57753659e-09 -3.77447446e-05  5.00301730e-01 -8.91869202e-09  4.90268224e-07
  7.89138574e-07 -5.48360713e-08  2.00977646e-01 -6.45726481e-08 -8.56691007e-08
  8.15780575e-02 -5.23088833e-03  1.21373068e-01  2.88081193e-01 -1.98646583e-05
  3.47146501e-07  3.98232391e-01 -2.32753148e-05  2.76574415e-07  2.73158291e-01
 -2.57502135e-03  2.15401622e-04  2.25750338e-03  2.08434312e-05 -3.88632022e-07
  8.90714868e-03 -1.20683181e-05 -1.73805249e-07  4.30819532e-03  2.84701243e-04
  5.82196535e-08  2.30870530e-09 -3.46746776e-07  4.19820505e-07 -9.72062286e-06
  2.45421289e-07 -5.17812365e-07 -2.83230970e-06 -7.18222513e-08  2.00745241e-08
  1.63332571e-09 -6.81770707e-06 -2.06779777e-05  1.01163092e-05 -3.52833629e-02
 -6.23817867e-08 -2.55085355e-05 -3.23796320e-02 -1.10206430e-08  9.48045563e-06
  2.52739323e-06  1.77919883e-07  2.73066339e-03 -3.17501930e-03 -6.08622824e-05
  2.30221894e-03 -1.20408889e-05 -1.67133952e-07 -6.82118522e-03 -1.11069237e-06
 -2.16531344e-08 -1.60359504e-03 -2.76649925e-04 -5.65683807e-08  5.28842474e-06
  6.96256496e-04  7.28282868e-08  1.89778588e-07 -1.42304389e-07  4.45100930e-08
 -5.05859425e-02  1.85965861e-07  2.69860804e-08 -1.98968325e-02 -4.38162621e-08
  4.49489808e-08  1.54616016e-06  8.58644046e-09 -1.20781163e-08  5.34168476e-03
 -2.70473711e-03 -6.79729011e-03 -1.55763239e-02 -1.93890805e-05 -1.08929677e-07
 -2.92175053e-02  7.51878536e-06 -3.57316194e-08 -1.78559906e-02 -4.48904647e-04
 -3.50363006e-08 -3.40809408e-07  5.77918367e-04 -1.60653092e-08  1.49507857e-03
 -3.24451105e-03  1.12395136e-01 -9.38397738e-03 -2.00600276e-05  3.21694725e-01
 -2.49033366e-01 -3.54154172e-05  1.34114076e-01 -1.41420823e-01 -2.27517035e-03
 -1.83833069e-08  1.22534994e-07  3.04924020e-03 -2.99936520e-02  1.11595505e-02
  4.09457405e-01  3.54919528e-04 -1.37589288e-03 -1.91625770e-02 -1.54788574e-05
  8.02409132e-02 -4.21866909e-02 -1.36019835e-05  3.32278694e-02 -2.68167999e-02
 -4.25814231e-04 -2.82126390e-07  1.12747038e-06  4.11492377e-04 -7.59905629e-03
  1.95342794e-03  7.82746214e-02  1.72011411e-02 -5.50038839e-07 -1.28535109e-06
  5.78478148e-06  3.86566636e-02 -1.89136849e-06 -1.57856583e-06  3.09005823e-02
 -1.34610871e-06  1.64621955e-06 -5.25183284e-07 -1.51940978e-08 -1.92296854e-03
  2.96467218e-07 -1.11800393e-07  1.60730844e-07 -1.06740887e-05 -2.26097002e-06
  1.91785870e-03  1.18691854e-03 -2.48598757e-02 -6.17592895e-03 -1.00158829e-05
 -2.11252112e-02  3.50289032e-02 -6.62390842e-06 -8.78977259e-03  1.84055251e-02
  3.90915324e-04  3.14029975e-08  9.68427124e-07 -4.29411574e-04  1.97871257e-03
 -1.49008486e-03 -4.19884255e-02 -6.68701131e-03  3.85161949e-07  5.27143838e-03
 -1.05216974e-03  1.95027647e-02  2.12034430e-02  2.96982554e-06  2.90163427e-02
  9.72501003e-03  4.02805265e-06  1.18943944e-02  9.12761561e-03  9.31199085e-05
 -2.62722032e-07 -8.91250367e-07  3.27308215e-05 -2.81154801e-03 -5.07927005e-04
  2.27895748e-02  4.51487954e-03 -1.16388522e-07 -2.05429405e-03  2.67592305e-03
 -3.24474052e-03  1.12395142e-01 -9.38334213e-03 -2.02068632e-05 -3.21695069e-01
 -2.49033357e-01 -3.54707460e-05 -1.34114109e-01 -1.41420464e-01 -2.27466314e-03
 -2.12718949e-07  1.57717775e-07  3.04934741e-03  2.99935400e-02  1.11597432e-02
 -6.17041522e-02 -3.65936855e-02 -1.36716085e-06 -1.12526935e-02 -1.73135547e-02
  4.09457810e-01  3.54889196e-04 -1.37551887e-03 -1.91620087e-02 -1.51508710e-05
 -8.02408387e-02 -4.21863034e-02 -1.33477576e-05 -3.32278420e-02 -2.68164509e-02
 -4.25685450e-04  2.57217030e-07  1.12573420e-06  4.11520346e-04  7.59902467e-03
  1.95345312e-03 -3.65935923e-02 -1.09114407e-02 -2.40795804e-07  8.14617203e-04
 -5.35952145e-03  7.82745008e-02  1.72010433e-02 -5.16385943e-07 -1.13416182e-06
  5.77611955e-06  3.86569832e-02  2.04550309e-06 -1.44951360e-06  3.09004830e-02
  1.40354797e-06  1.65629475e-06 -5.17330994e-07 -1.37255314e-08 -1.92290180e-03
  2.72680926e-07  1.02348773e-07  1.43707931e-07 -1.25529140e-06 -2.32999691e-07
  1.91785904e-03 -2.11147287e-07  4.50119941e-07 -1.08232510e-05 -2.28152843e-06
  1.91786108e-03 -1.18694339e-03  2.48599502e-02  6.17593278e-03  1.01304072e-05
 -2.11253784e-02 -3.50292770e-02  6.71716368e-06 -8.78981286e-03 -1.84056999e-02
 -3.90887660e-04  1.16815947e-09 -9.71501536e-07  4.29430610e-04  1.97872300e-03
  1.49011768e-03  1.12527874e-02 -8.14628434e-04  2.07520739e-07 -3.26580750e-03
 -5.69310705e-04  4.19888106e-02  6.68706747e-03 -3.86356681e-07  5.27152338e-03
 -1.05218109e-03  1.95029399e-02  2.12034514e-02  2.97541145e-06 -2.90164766e-02
  9.72468191e-03  4.02725664e-06 -1.18944343e-02  9.12741822e-03  9.31653259e-05
  2.50057586e-07 -8.84555345e-07  3.27490960e-05  2.81156032e-03 -5.07896169e-04
 -1.73134637e-02 -5.35956476e-03  4.36313035e-07  5.69270641e-04 -8.25324688e-04
  2.27901218e-02  4.51497588e-03 -1.22919263e-07  2.05436572e-03  2.67596528e-03
Natural orbital occupancies                R   N=            9
  1.00000000e+00  9.91485225e-01  9.91485065e-01  9.96431957e-01  9.96423228e-01
  8.51493459e-03  8.51477493e-03  3.57677212e-03  3.56804325e-03