pynof
Energy PNOF8 6-31G
Number of atoms                            I                8
Charge                                     I                0
Multiplicity                               I                1
Number of electrons                        I               48
Number of alpha electrons                  I               24
Number of beta electrons                   I               24
Number of basis functions                  I               72
Number of independant functions            I               72
Number of contracted shells                I               40
Highest angular momentum                   I                1
Largest degree of contraction              I                6
Number of primitive shells                 I              112
Atomic numbers                             I   N=           8
           5           7           5           7           5           7
           5           7
Nuclear Charges                            R   N=           8
  5.00000000e+00  7.00000000e+00  5.00000000e+00  7.00000000e+00  5.00000000e+00  7.00000000e+00
  5.00000000e+00  7.00000000e+00
Current cartesian coordinates              R   N=          24
 -8.17625757e+00 -9.60297077e-01  0.00000000e+00 -6.23999070e+00  1.15961149e+00
  0.00000000e+00 -3.65409401e+00 -8.76429064e-02  0.00000000e+00 -1.28086671e+00
  1.52766910e+00  0.00000000e+00  9.45606909e-01 -2.84526479e-01  0.00000000e+00
  3.62854331e+00  7.37231429e-01  0.00000000e+00  5.37636423e+00 -1.54047097e+00
  0.00000000e+00  8.22303765e+00 -1.16579043e+00  0.00000000e+00
Shell types                                I   N=          40
           0           0           1           0           1           0
           0           1           0           1           0           0
           1           0           1           0           0           1
           0           1           0           0           1           0
           1           0           0           1           0           1
           0           0           1           0           1           0
           0           1           0           1
Number of primitives per shell             I   N=          40
           6           3           3           1           1           6
           3           3           1           1           6           3
           3           1           1           6           3           3
           1           1           6           3           3           1
           1           6           3           3           1           1
           6           3           3           1           1           6
           3           3           1           1
Shell to atom map                          I   N=          40
           1           1           1           1           1           2
           2           2           2           2           3           3
           3           3           3           4           4           4
           4           4           5           5           5           5
           5           6           6           6           6           6
           7           7           7           7           7           8
           8           8           8           8
Coordinates of each shell                  R   N=         120
  8.22303765e+00 -1.16579043e+00  0.00000000e+00  8.22303765e+00 -1.16579043e+00
  0.00000000e+00  8.22303765e+00 -1.16579043e+00  0.00000000e+00  8.22303765e+00
 -1.16579043e+00  0.00000000e+00  8.22303765e+00 -1.16579043e+00  0.00000000e+00
 -8.17625757e+00 -9.60297077e-01  0.00000000e+00 -8.17625757e+00 -9.60297077e-01
  0.00000000e+00 -8.17625757e+00 -9.60297077e-01  0.00000000e+00 -8.17625757e+00
 -9.60297077e-01  0.00000000e+00 -8.17625757e+00 -9.60297077e-01  0.00000000e+00
 -6.23999070e+00  1.15961149e+00  0.00000000e+00 -6.23999070e+00  1.15961149e+00
  0.00000000e+00 -6.23999070e+00  1.15961149e+00  0.00000000e+00 -6.23999070e+00
  1.15961149e+00  0.00000000e+00 -6.23999070e+00  1.15961149e+00  0.00000000e+00
 -3.65409401e+00 -8.76429064e-02  0.00000000e+00 -3.65409401e+00 -8.76429064e-02
  0.00000000e+00 -3.65409401e+00 -8.76429064e-02  0.00000000e+00 -3.65409401e+00
 -8.76429064e-02  0.00000000e+00 -3.65409401e+00 -8.76429064e-02  0.00000000e+00
 -1.28086671e+00  1.52766910e+00  0.00000000e+00 -1.28086671e+00  1.52766910e+00
  0.00000000e+00 -1.28086671e+00  1.52766910e+00  0.00000000e+00 -1.28086671e+00
  1.52766910e+00  0.00000000e+00 -1.28086671e+00  1.52766910e+00  0.00000000e+00
  9.45606909e-01 -2.84526479e-01  0.00000000e+00  9.45606909e-01 -2.84526479e-01
  0.00000000e+00  9.45606909e-01 -2.84526479e-01  0.00000000e+00  9.45606909e-01
 -2.84526479e-01  0.00000000e+00  9.45606909e-01 -2.84526479e-01  0.00000000e+00
  3.62854331e+00  7.37231429e-01  0.00000000e+00  3.62854331e+00  7.37231429e-01
  0.00000000e+00  3.62854331e+00  7.37231429e-01  0.00000000e+00  3.62854331e+00
  7.37231429e-01  0.00000000e+00  3.62854331e+00  7.37231429e-01  0.00000000e+00
  5.37636423e+00 -1.54047097e+00  0.00000000e+00  5.37636423e+00 -1.54047097e+00
  0.00000000e+00  5.37636423e+00 -1.54047097e+00  0.00000000e+00  5.37636423e+00
 -1.54047097e+00  0.00000000e+00  5.37636423e+00 -1.54047097e+00  0.00000000e+00
Total Energy                               R     -3.167694148092804e+02
Primitive exponents                        R   N=         112
  2.06888230e+03  3.10649570e+02  7.06830330e+01  1.98610800e+01  6.29930480e+00
  2.12702700e+00  4.72797100e+00  1.19033770e+00  3.59411700e-01  4.72797100e+00
  1.19033770e+00  3.59411700e-01  1.26751200e-01  1.26751200e-01  4.17351100e+03
  6.27457900e+02  1.42902100e+02  4.02343300e+01  1.28202100e+01  4.39043700e+00
  1.16263580e+01  2.71628000e+00  7.72218000e-01  1.16263580e+01  2.71628000e+00
  7.72218000e-01  2.12031300e-01  2.12031300e-01  2.06888230e+03  3.10649570e+02
  7.06830330e+01  1.98610800e+01  6.29930480e+00  2.12702700e+00  4.72797100e+00
  1.19033770e+00  3.59411700e-01  4.72797100e+00  1.19033770e+00  3.59411700e-01
  1.26751200e-01  1.26751200e-01  4.17351100e+03  6.27457900e+02  1.42902100e+02
  4.02343300e+01  1.28202100e+01  4.39043700e+00  1.16263580e+01  2.71628000e+00
  7.72218000e-01  1.16263580e+01  2.71628000e+00  7.72218000e-01  2.12031300e-01
  2.12031300e-01  2.06888230e+03  3.10649570e+02  7.06830330e+01  1.98610800e+01
  6.29930480e+00  2.12702700e+00  4.72797100e+00  1.19033770e+00  3.59411700e-01
  4.72797100e+00  1.19033770e+00  3.59411700e-01  1.26751200e-01  1.26751200e-01
  4.17351100e+03  6.27457900e+02  1.42902100e+02  4.02343300e+01  1.28202100e+01
  4.39043700e+00  1.16263580e+01  2.71628000e+00  7.72218000e-01  1.16263580e+01
  2.71628000e+00  7.72218000e-01  2.12031300e-01  2.12031300e-01  2.06888230e+03
  3.10649570e+02  7.06830330e+01  1.98610800e+01  6.29930480e+00  2.12702700e+00
  4.72797100e+00  1.19033770e+00  3.59411700e-01  4.72797100e+00  1.19033770e+00
  3.59411700e-01  1.26751200e-01  1.26751200e-01  4.17351100e+03  6.27457900e+02
  1.42902100e+02  4.02343300e+01  1.28202100e+01  4.39043700e+00  1.16263580e+01
  2.71628000e+00  7.72218000e-01  1.16263580e+01  2.71628000e+00  7.72218000e-01
  2.12031300e-01  2.12031300e-01
Contraction coefficients                   R   N=         112
  1.86630000e-03  1.42515000e-02  6.95516000e-02  2.32572900e-01  4.67078700e-01
  3.63431400e-01 -1.30393800e-01 -1.30788900e-01  1.13094440e+00  7.45976000e-02
  3.07846700e-01  7.43456800e-01  1.00000000e+00  1.00000000e+00  1.83480000e-03
  1.39950000e-02  6.85870000e-02  2.32241000e-01  4.69070000e-01  3.60455000e-01
 -1.14961000e-01 -1.69118000e-01  1.14585200e+00  6.75800000e-02  3.23907000e-01
  7.40895000e-01  1.00000000e+00  1.00000000e+00  1.86630000e-03  1.42515000e-02
  6.95516000e-02  2.32572900e-01  4.67078700e-01  3.63431400e-01 -1.30393800e-01
 -1.30788900e-01  1.13094440e+00  7.45976000e-02  3.07846700e-01  7.43456800e-01
  1.00000000e+00  1.00000000e+00  1.83480000e-03  1.39950000e-02  6.85870000e-02
  2.32241000e-01  4.69070000e-01  3.60455000e-01 -1.14961000e-01 -1.69118000e-01
  1.14585200e+00  6.75800000e-02  3.23907000e-01  7.40895000e-01  1.00000000e+00
  1.00000000e+00  1.86630000e-03  1.42515000e-02  6.95516000e-02  2.32572900e-01
  4.67078700e-01  3.63431400e-01 -1.30393800e-01 -1.30788900e-01  1.13094440e+00
  7.45976000e-02  3.07846700e-01  7.43456800e-01  1.00000000e+00  1.00000000e+00
  1.83480000e-03  1.39950000e-02  6.85870000e-02  2.32241000e-01  4.69070000e-01
  3.60455000e-01 -1.14961000e-01 -1.69118000e-01  1.14585200e+00  6.75800000e-02
  3.23907000e-01  7.40895000e-01  1.00000000e+00  1.00000000e+00  1.86630000e-03
  1.42515000e-02  6.95516000e-02  2.32572900e-01  4.67078700e-01  3.63431400e-01
 -1.30393800e-01 -1.30788900e-01  1.13094440e+00  7.45976000e-02  3.07846700e-01
  7.43456800e-01  1.00000000e+00  1.00000000e+00  1.83480000e-03  1.39950000e-02
  6.85870000e-02  2.32241000e-01  4.69070000e-01  3.60455000e-01 -1.14961000e-01
 -1.69118000e-01  1.14585200e+00  6.75800000e-02  3.23907000e-01  7.40895000e-01
  1.00000000e+00  1.00000000e+00
Alpha Orbital Energies                     R   N=          72
 -1.57385290e+01 -1.57343654e+01 -1.56650615e+01 -1.55827595e+01 -7.75501658e+00
 -7.74292168e+00 -7.73539909e+00 -7.61568306e+00 -1.14232829e+00 -1.10890802e+00
 -1.09889346e+00 -1.08286250e+00 -6.84973843e-01 -6.76407944e-01 -6.39515441e-01
 -6.00927432e-01 -5.92263140e-01 -5.58242313e-01 -5.46781702e-01 -4.95012677e-01
 -4.89429717e-01 -4.72816610e-01 -4.17621887e-01 -3.78619636e-01 -4.58936110e-02
 -4.27182601e-02 -4.10799697e-02 -4.06122794e-02 -3.33491033e-02 -3.29025847e-02
 -3.14186647e-02 -2.99659407e-02 -2.85866430e-02 -2.76919120e-02 -2.37150276e-02
 -2.26323489e-02 -1.76763653e-02 -1.69753577e-02 -1.66682532e-02 -1.59514627e-02
 -1.00076265e-02 -8.17102184e-03 -6.80220984e-03 -6.32596666e-03 -5.44201907e-03
 -4.88544296e-03 -4.37362774e-03 -4.30459358e-03 -3.77890435e-03 -2.94730916e-03
 -2.92924442e-03 -2.65279199e-03 -2.60352856e-03 -2.47708138e-03 -2.44612220e-03
 -2.41758280e-03 -3.08325482e-04 -2.78435319e-04 -2.35606276e-04 -2.16370501e-04
 -1.98372371e-04 -1.88134453e-04 -1.30693060e-04 -1.25026502e-04 -1.22554058e-04
 -1.19912738e-04 -1.03082391e-04 -9.03285163e-05 -7.57168901e-05 -6.75042724e-05
 -6.58371724e-05 -5.77379758e-05
Alpha MO coefficients                      R   N=        5184
  2.69719720e-05  2.95045344e-04  4.16547372e-05  5.55806072e-05  5.55172340e-07
 -8.86979434e-04 -4.88102042e-04 -1.33243919e-04 -9.69288651e-07 -4.27348058e-03
  9.50721860e-05 -2.62587407e-05  1.16931629e-06 -1.74235149e-07 -1.09719800e-03
 -5.10489207e-04  2.44613298e-04  1.49441363e-06 -2.33878376e-05  6.03581743e-04
  2.17347565e-04  1.10295293e-04 -7.26651813e-07 -1.38402023e-03 -3.07487868e-03
  1.27061742e-04  4.53846258e-07 -1.07773643e-01 -2.44207893e-03 -5.40445011e-05
  4.70030519e-05 -1.02388948e-05  1.31087758e-03 -3.15317814e-04 -5.24966512e-05
 -7.83171120e-06 -4.41903717e-04  3.51503626e-04  7.57465381e-04  2.84900786e-04
  3.97268087e-06 -3.28456739e-03 -5.81767068e-03 -1.50646448e-04  2.11552569e-06
 -6.95501924e-01 -1.59994150e-02  4.80203133e-04  1.57660504e-03  1.91634838e-06
  1.51157952e-02 -9.59408665e-04 -2.21660096e-03 -1.10160856e-05 -8.14876316e-04
  2.27125689e-04  4.26867946e-04  3.83348415e-04  5.20520733e-07 -5.34185474e-03
 -4.11524930e-03 -1.93986629e-03 -1.00353378e-06 -7.06874545e-01 -1.54210374e-02
  1.46784281e-03  2.47524413e-04 -3.24162030e-06  1.32554034e-02 -3.14267006e-03
 -2.59767333e-04  2.24437336e-06 -2.88155115e-05 -1.78933922e-04 -3.06053124e-05
 -4.29906437e-05  3.07163568e-07  5.35845564e-04  3.04016692e-04  6.76165750e-05
 -4.48634658e-07  6.45230159e-03  9.07249964e-05  5.00077521e-05  1.88069773e-05
 -2.90458039e-07  4.72391637e-04  2.45907457e-04 -1.31494941e-04 -2.59123425e-06
  1.34785409e-04 -1.99532232e-04 -1.72177062e-04 -1.20511304e-04  1.54711059e-06
  6.97672608e-04  1.65919657e-03  1.02986131e-04  1.61555948e-06  2.67671268e-01
  6.49493367e-03  4.07532835e-05 -3.37770698e-04  1.78222400e-05 -6.63546188e-03
 -7.61548929e-04  1.17333922e-03  1.41139113e-05  5.90588526e-04  2.61668515e-04
 -4.33750683e-04 -4.40148949e-04  3.70547699e-06  2.69865345e-03  2.76150619e-04
  2.56033767e-03 -1.58238659e-07  6.64254097e-01  1.48615685e-02 -5.35031733e-04
 -1.51117421e-03  9.28281254e-06 -1.28035577e-02  1.21300955e-03  1.91590498e-03
 -4.16863199e-06 -8.79316972e-06 -1.70190203e-04  9.73893521e-04 -5.42703798e-04
  5.35178489e-06 -1.13056099e-03 -5.26077217e-03  7.98211027e-04  1.31092639e-06
 -6.94399043e-01 -1.48482130e-02  1.44517882e-03  6.11510232e-04  1.12242148e-06
  1.23576489e-02 -2.64241533e-03 -7.96047196e-04  1.57606301e-06 -2.51060207e-05
 -2.56084695e-04 -1.40733281e-05 -9.63958090e-06  1.06490935e-07  8.15831271e-04
  5.63870815e-04 -5.91259036e-05 -2.15372263e-06  4.23609505e-02  1.33511805e-03
  1.47770254e-04  1.22762212e-04 -7.34226947e-07 -1.76448755e-03 -5.67376427e-04
  1.03879664e-05 -4.39367003e-06  5.54520565e-04  7.17890711e-05 -5.00832977e-04
 -4.87807622e-04  6.16447100e-06  3.01922700e-03  1.51790672e-03  2.27897609e-03
  6.34922658e-06  9.53865690e-01  2.17280018e-02 -3.24715813e-04 -1.66841668e-03
  4.79474631e-05 -1.92185118e-02 -4.36175976e-05  3.51670251e-03  3.30544843e-05
  5.22769516e-04 -8.60769121e-05  8.45135918e-04 -4.53878378e-04  1.44231494e-05
  2.20467559e-03 -4.48201389e-03  2.04352414e-03  1.38235384e-05 -2.64932373e-01
 -5.73744140e-03  1.23110105e-04  7.27600838e-04  8.48981557e-06  5.14577884e-03
 -2.60789421e-05 -1.03791916e-03 -8.31557550e-06 -1.37482230e-04 -4.69702534e-04
 -1.37500453e-04  1.80178072e-04  4.19069656e-06  3.58613791e-04 -9.15875739e-04
 -5.00092551e-04 -5.68172976e-06  1.14789475e-01  2.13504739e-03 -2.62735324e-04
 -1.35565316e-04 -2.16874704e-06 -6.35671448e-04 -1.84237044e-05  5.10897737e-05
 -4.49494107e-06 -6.07600259e-04 -9.66737610e-05  2.12114536e-04  6.34432013e-04
 -1.54672646e-06 -1.97711073e-03 -8.30129647e-04 -1.23125982e-03 -1.02397671e-06
 -9.96498069e-01 -2.27680367e-02 -1.63214457e-04  1.41307601e-03 -9.02865609e-06
  1.93340746e-02  1.62823447e-03 -3.16645277e-03 -5.96083444e-06 -6.59173732e-04
  1.06101501e-04 -9.44763395e-04  4.62070524e-04  1.05841535e-06 -3.19862885e-03
  4.96337985e-03 -1.83891817e-03 -5.30916877e-07  4.28327570e-02  6.92916422e-04
  8.29615978e-05 -1.27096193e-04  2.46989641e-06 -3.10326882e-04 -3.62126855e-04
  2.78532817e-04 -4.56725614e-06  4.42339505e-05  4.48512451e-04 -6.23445555e-05
 -6.38751355e-06  7.99244345e-06 -3.87631827e-04  2.73738087e-03  4.54069123e-04
  2.95146975e-06 -3.92371338e-03  1.80137816e-04  2.00405998e-05  3.60651676e-05
  6.40384195e-06 -1.32061376e-03  6.59047232e-04  1.55877514e-04 -9.29969281e-06
  3.89529434e-06  2.41818931e-04 -4.55736831e-05  6.20232705e-05  9.07475798e-06
 -6.74335296e-04  5.51107139e-04 -2.46084023e-04 -4.91963154e-06  3.42495889e-03
  1.08959898e-04 -3.06165178e-06 -2.05239384e-05  2.56201334e-06 -2.37277805e-04
  4.04397425e-05  7.99543414e-05 -5.07284876e-06  2.72013294e-02  5.94467391e-04
  6.98523163e-05  1.67643263e-04 -9.20809563e-07 -1.38023420e-04  8.07047760e-05
 -4.35372954e-05  5.08333591e-06  4.89364579e-05 -1.97709824e-04 -4.16946023e-04
  4.79199382e-05  1.12967776e-06 -7.82406172e-04 -3.80968699e-04  3.67701828e-04
  2.20116229e-06  3.06712733e-01  8.12922590e-03  3.35316642e-04  1.98848638e-04
 -4.94561851e-06 -2.79981044e-03 -7.29526505e-04  1.08747111e-04 -7.64787515e-06
  6.54546714e-05 -1.04703667e-04 -2.44971580e-04  8.19517888e-04 -4.16840608e-06
 -3.18259435e-03 -5.74700981e-04  1.88437903e-03  5.72582987e-06  6.38471167e-01
  1.72476898e-02  9.64305415e-04 -5.60864761e-04 -2.85972876e-05 -6.20420557e-03
 -4.62134797e-03  1.80295038e-03 -2.06173057e-05  1.63989221e-05 -4.81044743e-06
  1.75617733e-03 -6.32177090e-04 -2.95024175e-05  1.81194703e-04  4.72672683e-04
 -2.37773889e-04  6.10358755e-05 -6.99842859e-01 -1.90214314e-02  3.88022146e-04
  1.65926386e-04 -3.10852423e-05  7.30660423e-03 -4.02246205e-03  4.23228197e-04
  9.83516379e-06  5.20725988e-06  1.21687485e-05 -8.54130990e-04 -5.99012160e-04
 -1.41137496e-06  2.31563649e-03 -1.17650994e-03 -8.06477762e-04 -6.52523346e-07
  5.04827584e-02  1.00003695e-03  7.38715337e-06  2.89843723e-04 -3.54766252e-06
  2.06051286e-04  4.70320858e-04  9.12888516e-06  3.41556202e-06  6.18139004e-05
 -4.26029595e-04 -8.46461462e-04  3.64759929e-04  1.36004268e-06 -1.09114568e-03
 -4.71758458e-04  7.22213353e-04  1.63256455e-06  6.19816772e-01  1.60531908e-02
  7.43467498e-04 -1.11987947e-04 -1.66829591e-06 -4.56562739e-03  1.56732448e-05
  3.25445329e-04 -3.44157555e-06  1.36227403e-04 -5.84781197e-04  3.06466798e-04
  5.94703134e-04 -1.60201753e-05 -1.63168685e-03  1.72566241e-04  1.47772689e-03
 -1.42493682e-05  4.19199932e-01  1.06991833e-02  5.85937400e-04  2.52860277e-04
  1.28289352e-05 -1.69798818e-03  2.28271271e-04 -9.39970418e-05 -4.63567644e-06
  5.83377645e-06 -4.64051007e-04 -4.04022929e-05  1.09555845e-03 -5.57713013e-07
 -1.15672893e-03  5.83639567e-04  1.35876508e-03  6.03109225e-08  6.55617518e-01
  1.71618682e-02 -2.33658002e-04  1.04339517e-04  1.19996275e-05 -4.76497059e-03
  4.58695698e-04 -1.00259232e-05 -7.56221348e-06 -2.57250557e-05 -3.81058368e-04
  8.38341873e-04  4.38563519e-04  8.04816746e-06 -4.67638302e-04  7.97423585e-04
  2.88421187e-04 -6.97989748e-06 -8.49630535e-02 -2.09845472e-03 -1.31524032e-04
 -4.98155836e-04  1.39493789e-06  9.81109242e-04  7.01076786e-05  1.54826064e-04
  1.50392802e-06 -1.17048715e-04  1.30775105e-04  7.57129958e-04 -6.22144398e-04
  4.48780239e-07  2.81423067e-03  9.66244716e-04 -1.31752519e-03  3.92851937e-06
 -7.09984425e-01 -1.89362389e-02 -1.21903331e-03  3.32145537e-04 -4.88369206e-06
  6.82510033e-03  3.99289932e-03 -8.41498302e-04 -3.71527936e-06 -5.73550459e-05
 -5.01686002e-05 -1.88870978e-03  1.19355025e-04  2.04384400e-05  3.40446571e-04
 -5.49815327e-04 -3.31014673e-04  1.62207870e-05  6.39295652e-01  1.71768448e-02
  4.53272872e-04 -4.85216589e-04 -2.63543171e-05 -6.40077953e-03  3.70723283e-03
  4.73113499e-04 -2.10706324e-05 -2.14452962e-05  5.44044033e-05  5.82884937e-04
  7.23402557e-04 -1.45628118e-05 -2.58306831e-03  1.12799190e-03  1.56930883e-03
  3.31617316e-05  2.68936866e-01  7.14092269e-03 -7.95223559e-06  2.75000560e-04
 -2.17986966e-05 -2.08299245e-03  9.21030066e-05 -7.40890994e-05  1.29316865e-05
  6.91416792e-06 -1.75029262e-04  3.52644305e-04  8.51357666e-05 -3.64375146e-06
 -1.64211902e-04  3.54116527e-04  4.52628454e-05  1.14840905e-05 -9.91978174e-01
 -2.32267706e-02 -3.91724316e-03 -3.62227176e-03  1.71717279e-06  1.25033541e-02
  2.19011611e-03  8.35150976e-04 -2.32659271e-06  6.27104962e-05 -1.84954670e-04
 -1.30270185e-03 -3.57278296e-04  5.50899652e-06  1.65018291e-03  2.31299163e-04
 -1.60271597e-03 -2.34267751e-06  1.00627174e-01  2.43447876e-03  1.57828228e-04
 -3.16331406e-04 -1.48404137e-05 -2.30699865e-03  3.13309177e-03  4.30604317e-04
 -1.05421536e-06  4.71550942e-06  4.57768477e-05  1.34609141e-04  8.26658705e-05
 -2.07264758e-05 -9.30578083e-04 -6.75947151e-05  5.00041317e-04  4.55252107e-05
 -1.58597912e-02 -1.12433610e-04 -1.40755045e-04  2.04631429e-04 -4.82112408e-05
 -1.88732692e-05  1.11104442e-03  9.16063606e-05 -8.56469788e-06  6.31541808e-06
  8.75713224e-05 -4.99733452e-05 -2.78826696e-05 -3.34698299e-05 -4.49611350e-04
  3.09436579e-04 -3.15972441e-05  5.12720062e-05 -8.83499771e-03 -1.40716765e-04
 -3.13404154e-05 -3.26795651e-06 -6.35256753e-05 -2.74922467e-04  3.08214426e-04
 -1.43542272e-04  3.62344116e-05  8.53808303e-06  3.14036018e-05 -1.52679082e-06
 -2.95308590e-06 -2.53547741e-05 -1.11132727e-04 -3.59654601e-06  4.49417553e-05
  4.13200300e-05  1.66596063e-03 -1.43443727e-03 -2.75879107e-03 -3.73443370e-03
  4.33258688e-04 -1.06338221e-02 -5.62618218e-03 -6.65246300e-04  4.82087387e-04
  6.14672963e-03 -1.53354657e-02  4.53152097e-03 -1.16577178e-03  8.49452735e-04
 -1.39247169e-02  4.45155712e-04 -4.89658761e-03  1.28313387e-03 -4.11286927e-02
  6.58960709e-02  7.70230740e-02  4.39073440e-02 -2.87644224e-03 -1.93872520e-02
 -3.27313188e-02 -1.50716001e-02 -1.61301795e-03 -2.02670808e-01  4.43502796e-01
  5.03311324e-02 -4.58049578e-02 -1.12010597e-02  5.40185495e-01  3.12562966e-02
 -2.89331580e-02 -8.89495137e-03 -6.65776999e-02  1.15227304e-01 -1.01685829e-01
  8.70681540e-02 -5.01239473e-03  8.61771331e-03  3.76659202e-02 -1.46113124e-02
 -3.57710411e-03 -2.79033030e-03  4.54992696e-03 -1.01993493e-02 -7.37196215e-04
 -8.66037989e-04 -1.98932241e-03  2.32541000e-03 -5.22895059e-03 -2.22136921e-05
 -5.54875343e-04  4.01349359e-03 -9.05882486e-04 -3.06828664e-04  6.80250296e-04
 -1.06086985e-02  1.45338919e-02 -2.60262693e-03  9.16894933e-04  4.63835658e-04
 -1.44994478e-04  1.17074068e-03  3.26785144e-04  8.92375636e-04 -7.35703773e-03
  2.11942402e-03  1.49280657e-03  7.21474077e-04  1.15109206e-04  1.31287412e-03
 -4.92716892e-04  4.88642498e-04  1.99699972e-05 -4.85892368e-03 -3.35861032e-03
 -4.47164624e-04  2.46760118e-05 -6.69066377e-04  2.54495060e-03 -1.34764547e-03
  2.36123898e-03  7.11501196e-05 -3.36177052e-03 -2.80108325e-03  3.39037223e-03
  8.04956260e-05  1.54534693e-03  3.46218880e-03 -4.79012713e-04 -5.41782798e-03
 -7.91107161e-05 -1.46874429e-02 -2.19308640e-02 -1.05264103e-03 -4.72922477e-06
  1.17867276e-02 -2.43256613e-02  7.61247592e-03 -1.25107166e-02 -5.78455269e-04
 -5.37732603e-02 -1.08937172e-02 -5.27515190e-03 -4.16839468e-04 -2.65622394e-02
  3.96356547e-02  6.11870550e-02  5.63160790e-02 -3.42615172e-04 -3.90371796e-02
 -7.92338939e-02  1.99673942e-02 -2.57200629e-04 -2.12852196e-01  4.78418844e-01
  3.04754454e-02  7.15751110e-02 -8.26214901e-04  5.99020277e-01  1.39882886e-02
  5.14343357e-02 -6.18788664e-04 -3.57003850e-02  5.29145713e-02 -1.77669390e-02
  8.53060118e-02 -5.38387685e-04 -1.80412295e-02  3.90276873e-02 -3.67889691e-03
 -3.63182760e-04 -3.23886395e-03  1.02726867e-02 -9.75926972e-03 -1.74948480e-02
 -3.38156040e-04 -1.72628734e-02  4.44763820e-03 -1.30564818e-02 -2.34993088e-04
  3.22955766e-05  1.39255486e-04  1.89187902e-05 -6.15282078e-05 -6.71381953e-07
 -4.10535531e-04 -2.37346316e-04 -9.78673434e-06  7.63725096e-06  7.35835310e-05
 -1.80519275e-04  1.01074727e-04 -1.69167827e-04 -1.51125719e-06 -2.75183216e-04
  2.09003594e-04  3.26619880e-05  4.75775345e-07  2.00901772e-06  4.04046256e-04
  8.39897619e-05  5.41314935e-04  2.36262286e-06 -2.60738079e-03 -1.96045581e-03
 -4.98057222e-04 -4.34015787e-06 -9.04656714e-04  2.83471013e-03 -4.08035364e-04
  8.76550466e-04  1.89625188e-05 -1.37028260e-03 -1.47889058e-03  1.55064501e-03
  1.16168079e-05  1.62214239e-03 -5.37564033e-04 -4.40228664e-03 -4.19880406e-03
  6.34473381e-05 -7.81579251e-03 -1.12620771e-02  5.63198051e-03  3.09875803e-05
  8.89162887e-03 -2.28021199e-02  5.51833370e-03 -1.00924040e-02  1.80475274e-04
 -1.99570775e-02  2.32786707e-03 -9.62560478e-03  8.60226363e-05 -3.43628149e-02
  5.36950001e-02  7.71499388e-02  1.79254598e-02  1.47567808e-04 -5.23106171e-02
 -5.58702875e-02  2.94016941e-03  7.06140974e-05 -2.18449704e-01  5.06004540e-01
  4.05786028e-02  2.38967029e-02  4.50561109e-05  5.89791560e-01  2.34510038e-02
  1.43153292e-02  5.94931464e-05  4.12861627e-02 -6.51575503e-02 -6.14416048e-02
 -7.20334804e-02  5.12843002e-04  2.60589894e-02  1.46700471e-02  1.02638749e-02
  3.69246526e-04  2.03029743e-01 -4.37942774e-01 -4.42403145e-02  3.66187234e-02
  1.69697735e-03 -5.43020272e-01 -2.67332156e-02  1.75960316e-02  1.42211744e-03
  6.34615405e-02 -1.10414476e-01  1.18840467e-01 -5.94562789e-02  6.93660506e-04
 -9.61336253e-03 -4.63309769e-02  1.16808488e-03  4.86229185e-04 -3.06164733e-04
  1.85790442e-03  1.07730310e-02  1.24646512e-03  6.16069828e-05  1.09181876e-02
 -4.20259779e-03  2.87361879e-03 -4.37565778e-05 -4.45369421e-04 -2.19154067e-03
 -7.48384857e-04  2.49579444e-03 -1.17313498e-04  9.59075779e-03 -2.10682968e-02
  8.79993351e-04 -1.19214899e-04 -2.77784215e-04 -3.77048566e-04 -1.58834849e-03
 -8.02574321e-04 -6.25282928e-05  7.63205753e-03 -3.33058303e-03 -2.00485365e-03
  5.20173339e-06 -7.85165526e-05 -1.17099912e-03  1.91693385e-05 -4.83266677e-04
  4.65905662e-06  3.40748296e-03 -3.85541074e-03  8.65962260e-04  6.33514499e-05
 -3.17386834e-05 -1.96672718e-04 -5.71600847e-05  1.46880645e-04  6.01150304e-05
  1.67038131e-03 -4.22152340e-04 -3.93245564e-04  6.86344922e-05  4.40536088e-04
 -2.31335665e-03 -2.67789555e-03 -3.57429693e-03  2.82097053e-05  1.84541440e-03
 -1.41962754e-03 -3.71119743e-04  4.14147810e-05 -1.48261158e-03  1.77512159e-03
  3.15967475e-03  5.00934705e-03  1.45165269e-04  1.74006386e-02  6.49920098e-03
  2.39072962e-03  1.14038896e-04 -1.60717908e-04  2.41230557e-03  5.15997327e-03
 -1.02769275e-02  5.19362990e-05 -5.84700278e-03  7.68392468e-03 -1.42924079e-02
  8.18548954e-05 -1.45076817e-02  4.05498087e-02  4.17874873e-02 -3.99597571e-02
 -3.56970492e-04  2.44603005e-04  1.65164172e-02 -1.30254096e-02 -1.49725149e-04
  1.19604217e-01 -2.48214324e-01 -3.03366670e-01  2.40171795e-02 -6.83881358e-04
 -8.64326274e-02 -1.54820041e-02  6.93759532e-02 -2.69610645e-04  4.03857846e-03
  7.85398217e-03  4.39889800e-01  2.02223336e-01 -1.17566760e-03  6.07091641e-02
  2.48945722e-01  1.43329174e-01 -5.88367819e-04 -8.19227292e-03  3.67849805e-02
  2.25589464e-02  1.06275414e-01 -1.20576032e-03  2.68065758e-02  8.81286404e-02
  2.20688224e-02 -7.74027182e-04  1.11003977e-02 -1.35719428e-02  1.13247957e-02
 -4.69711600e-02 -8.85710244e-04 -1.12457936e-01  4.71360562e-02 -3.56050949e-02
 -6.44352195e-04 -2.65562714e-04 -1.66518616e-03  1.87878168e-03 -1.15772978e-03
 -3.61088733e-05  6.67236684e-03  5.30538958e-03 -8.92039743e-04 -2.58911315e-05
  2.84278581e-05 -3.22933168e-04  4.07739833e-03 -5.74974306e-03 -1.01884529e-04
  1.58092111e-03  4.73564326e-03 -5.52045282e-03 -1.23686531e-04  5.17989368e-03
 -2.16026269e-02 -1.88208859e-02  7.42390821e-04  1.91292772e-04  1.13418762e-02
  2.17299906e-02  9.81212304e-03  2.72839094e-05 -1.48296366e-02  2.22361427e-02
  1.09683002e-02  2.77786942e-02  1.17617909e-03  1.19746987e-01  4.98225919e-02
  2.08362643e-03  8.43235824e-04  3.22980425e-03 -2.57513229e-02 -3.48697712e-02
 -1.10484247e-01  8.71430798e-04 -1.57458406e-02  8.60466813e-02 -6.86218180e-02
  7.01662000e-04  4.46481622e-03 -2.59956735e-02  2.52734934e-01 -3.98370667e-01
  2.34188294e-03 -1.10165167e-01  1.25941725e-01 -2.43524553e-01  2.00875232e-03
 -1.27221506e-01  2.59976610e-01 -2.56602628e-01  1.23523697e-01  1.06432595e-03
  1.28742014e-01 -5.47592754e-02 -4.21720020e-02  7.57502545e-04  1.23062523e-02
 -3.69094978e-02  4.72685555e-02  2.74532805e-02  3.90474509e-04 -2.72844853e-03
  2.13708003e-02  1.56006329e-02  1.29531059e-04  6.38751285e-04  1.89288608e-03
 -7.00053885e-03  1.38543037e-02 -8.61080777e-04 -1.31305295e-02 -7.78294793e-03
  1.16920629e-02 -1.09158297e-03  1.73290715e-02 -4.22980965e-02 -4.43697631e-02
  2.00678100e-02 -1.36135778e-03 -3.45526602e-02 -3.35162516e-02  6.37311117e-03
 -2.64877927e-03 -1.10881185e-01  2.36334722e-01  2.76858154e-01  7.90014543e-02
  8.14025477e-03  7.55331083e-02  1.31892911e-03 -4.27500329e-02  4.47323809e-03
  1.14930112e-03 -1.13382833e-02 -4.66017336e-01 -1.66273965e-01  2.92291294e-02
 -4.62454797e-02 -2.62399043e-01 -1.12415862e-01  2.27914004e-02  4.36839026e-02
 -1.07943381e-01  9.22629536e-02 -1.55340472e-01  1.25651631e-02 -5.06788692e-02
 -9.30017673e-02 -3.91930545e-02  8.81482568e-03 -1.66039497e-02  2.84298911e-02
 -1.72902505e-02  1.20257044e-02  1.09573513e-03  1.24454588e-01 -5.24792102e-02
  5.80166346e-03 -7.80282413e-04  5.23415323e-03 -2.29148068e-02  1.31564301e-02
 -8.16092723e-03 -2.39659520e-03  2.43367758e-03 -1.98879031e-02  8.73560936e-03
 -2.62926946e-03 -1.07249196e-03  1.03142302e-03 -7.08219259e-03 -1.86593178e-03
 -2.54995191e-03  1.40821128e-02 -9.22569076e-03 -3.55080782e-03 -1.88376322e-03
 -1.30949461e-04 -2.01512666e-03 -6.08746902e-04 -8.52536399e-04 -1.22350623e-05
  5.95749517e-03  3.33364870e-03  5.30834348e-04 -1.65165085e-05 -4.38723721e-04
 -1.70122403e-04  8.45904822e-04  5.76209089e-04 -1.18964934e-05  8.20485902e-03
  3.90094779e-03 -1.21373956e-03 -2.37755199e-05  1.59845716e-04 -4.85325610e-03
 -2.57475894e-03 -2.49004505e-03  4.84207741e-05  9.20853513e-03  2.05071131e-02
 -1.48118577e-03  3.24613143e-05 -1.60731042e-03  7.15063347e-04  5.64313306e-03
 -3.90068528e-03  1.50347210e-04  2.34373466e-02  1.36716189e-02 -8.09903460e-03
  9.51551220e-05  6.24966663e-03 -2.67266668e-02 -2.29840965e-02 -3.93035078e-03
  8.75618666e-05  3.50831450e-03  5.31273534e-02 -1.31486450e-02  1.10186605e-04
 -1.92431259e-02  3.59022651e-02  3.23871605e-02 -1.72419700e-03 -6.62011452e-05
  1.25383833e-01  5.90535601e-02 -2.20253740e-02  6.61451674e-05  6.55658728e-02
 -1.42648848e-01 -2.32224742e-01 -9.25810695e-02 -9.09986063e-04 -3.94450733e-02
  8.95702228e-02 -8.88207089e-02 -5.27447413e-04 -8.84791946e-03  2.56096036e-02
  4.94687532e-01 -3.48391003e-01 -2.38800917e-03  5.16067269e-02  3.05357642e-01
 -2.43979619e-01 -1.77289942e-03  1.08695760e-04  1.11562200e-03  2.04026672e-04
 -8.60866795e-05  1.33914029e-05 -3.59008059e-03 -2.12283683e-03 -7.45787922e-04
  1.61740981e-05  3.76313767e-05  6.87565691e-04  5.76145596e-04 -3.21510902e-04
  5.07907838e-05 -4.29501769e-03 -1.79487889e-03  6.66848712e-04  3.41004167e-05
  7.03386564e-04  3.16450229e-04 -9.02848580e-04 -9.84998123e-05 -1.62972791e-05
 -6.58764651e-03 -1.29992608e-02  1.72671329e-03 -1.16674331e-05 -3.64869730e-04
  1.18911318e-03  1.17517667e-03  2.20806344e-03 -4.11865005e-05  9.40992909e-04
 -2.01862483e-03  2.36093880e-03 -4.75294683e-05 -1.56373847e-03  1.60616535e-02
  1.05635090e-02 -5.00454732e-03  5.51788349e-05 -5.97912034e-03 -2.61742792e-02
 -5.84931153e-03 -4.99376058e-05 -4.09553323e-03  2.30873438e-02  1.85836699e-02
 -3.69976820e-02  3.45802577e-04 -6.68837175e-02 -1.25450914e-02  2.18633558e-03
  1.44060831e-04  1.10425042e-01 -2.24626359e-01 -1.69577418e-01  1.88753688e-01