pynof
Energy PNOF8 CC-PVDZ
Number of atoms                            I                3
Charge                                     I                0
Multiplicity                               I                1
Number of electrons                        I               10
Number of alpha electrons                  I                5
Number of beta electrons                   I                5
Number of basis functions                  I               24
Number of independant functions            I               20
Number of contracted shells                I               12
Highest angular momentum                   I                2
Largest degree of contraction              I                8
Number of primitive shells                 I               32
Atomic numbers                             I   N=           3
           8           1           1
Nuclear Charges                            R   N=           3
  8.00000000e+00  1.00000000e+00  1.00000000e+00
Current cartesian coordinates              R   N=           9
  0.00000000e+00  0.00000000e+00  1.20336934e-01  0.00000000e+00  1.41540487e+00
 -9.54917232e-01  0.00000000e+00 -1.41540487e+00 -9.54917232e-01
Shell types                                I   N=          12
           0           0           0           1           1          -2
           0           0           1           0           0           1
Number of primitives per shell             I   N=          12
           8           8           1           3           1           1
           3           1           1           3           1           1
Shell to atom map                          I   N=          12
           1           1           1           1           1           1
           2           2           2           3           3           3
Coordinates of each shell                  R   N=          36
  0.00000000e+00  0.00000000e+00  1.20336934e-01  0.00000000e+00  0.00000000e+00
  1.20336934e-01  0.00000000e+00  0.00000000e+00  1.20336934e-01  0.00000000e+00
  0.00000000e+00  1.20336934e-01  0.00000000e+00  0.00000000e+00  1.20336934e-01
  0.00000000e+00  0.00000000e+00  1.20336934e-01  0.00000000e+00  1.41540487e+00
 -9.54917232e-01  0.00000000e+00  1.41540487e+00 -9.54917232e-01  0.00000000e+00
  1.41540487e+00 -9.54917232e-01  0.00000000e+00 -1.41540487e+00 -9.54917232e-01
  0.00000000e+00 -1.41540487e+00 -9.54917232e-01  0.00000000e+00 -1.41540487e+00
 -9.54917232e-01
Total Energy                               R     -7.602694764183498e+01
Primitive exponents                        R   N=          32
  1.17200000e+04  1.75900000e+03  4.00800000e+02  1.13700000e+02  3.70300000e+01
  1.32700000e+01  5.02500000e+00  1.01300000e+00  1.17200000e+04  1.75900000e+03
  4.00800000e+02  1.13700000e+02  3.70300000e+01  1.32700000e+01  5.02500000e+00
  1.01300000e+00  3.02300000e-01  1.77000000e+01  3.85400000e+00  1.04600000e+00
  2.75300000e-01  1.18500000e+00  1.30100000e+01  1.96200000e+00  4.44600000e-01
  1.22000000e-01  7.27000000e-01  1.30100000e+01  1.96200000e+00  4.44600000e-01
  1.22000000e-01  7.27000000e-01
Contraction coefficients                   R   N=          32
  7.10000000e-04  5.47000000e-03  2.78370000e-02  1.04800000e-01  2.83062000e-01
  4.48719000e-01  2.70952000e-01  1.54580000e-02 -1.60000000e-04 -1.26300000e-03
 -6.26700000e-03 -2.57160000e-02 -7.09240000e-02 -1.65411000e-01 -1.16955000e-01
  5.57368000e-01  1.00000000e+00  4.30180000e-02  2.28913000e-01  5.08728000e-01
  1.00000000e+00  1.00000000e+00  1.96850000e-02  1.37977000e-01  4.78148000e-01
  1.00000000e+00  1.00000000e+00  1.96850000e-02  1.37977000e-01  4.78148000e-01
  1.00000000e+00  1.00000000e+00
Alpha Orbital Energies                     R   N=          24
 -2.05469174e+01 -1.34449261e+00 -7.10372683e-01 -5.67511945e-01 -4.94022789e-01
  0.00000000e+00  0.00000000e+00  0.00000000e+00  0.00000000e+00  0.00000000e+00
  0.00000000e+00  0.00000000e+00  0.00000000e+00  0.00000000e+00  0.00000000e+00
  0.00000000e+00  0.00000000e+00  0.00000000e+00  0.00000000e+00  0.00000000e+00
  0.00000000e+00  0.00000000e+00  0.00000000e+00  0.00000000e+00
Alpha MO coefficients                      R   N=         576
  1.00094059e+00  1.28946101e-03 -2.55981446e-03 -5.06259600e-17  4.08794132e-16
 -1.80624717e-03  2.21037000e-16 -4.02926419e-15  4.28216192e-04  1.20225085e-05
 -1.57943314e-16  8.42467395e-16 -1.81447997e-04 -1.08029608e-17 -3.43023229e-04
  4.19667872e-04 -2.65404283e-16  6.29302870e-04 -5.13357600e-04 -3.43023229e-04
  4.19667872e-04 -3.31162320e-16 -6.29302870e-04 -5.13357600e-04  9.03997224e-03
 -4.40950490e-01 -3.64541315e-01 -1.39325626e-15  2.00476687e-15  8.11559718e-02
  4.67827410e-17 -7.14127611e-14 -1.53668870e-02 -1.12428940e-03  2.01964106e-16
  8.33540872e-15  3.28517552e-03 -1.16398515e-16 -2.00086695e-01 -9.68379658e-03
 -7.47401423e-17  3.86385478e-02 -2.04555306e-02 -2.00086695e-01 -9.68379659e-03
 -5.57204244e-16 -3.86385478e-02 -2.04555306e-02 -3.29254300e-14 -4.08794247e-14
  2.78868909e-13  1.57275311e-15  4.91743541e-01  7.37896128e-15  1.60362725e-15
  2.14980396e-01 -1.22609663e-13  6.94310295e-15 -4.35487429e-16 -2.73838698e-02
 -1.44994783e-14  4.62315488e-17  3.32058832e-01  8.57045452e-02 -2.53429212e-16
 -2.35884299e-02  3.26664484e-02 -3.32058832e-01 -8.57045452e-02 -4.29144941e-18
 -2.35884299e-02 -3.26664484e-02  2.04807136e-03 -1.50448385e-01 -3.52361410e-01
  5.23056915e-15  7.24624238e-15 -5.48433116e-01  3.41104139e-15 -9.41122294e-14
 -3.66435755e-01  1.79644306e-02 -8.32320935e-17  1.64965932e-14 -4.65804199e-03
  3.23661056e-16  2.04328997e-01  3.67515492e-02  4.67915150e-16 -3.15605556e-02
 -8.49849261e-03  2.04328997e-01  3.67515492e-02  4.80118070e-16  3.15605556e-02
 -8.49849261e-03  4.64108615e-16  2.18099205e-15  3.09733221e-15  6.30467867e-01
 -1.35078980e-15  3.08997784e-15  4.95076663e-01  2.82121979e-16  2.79037489e-15
 -1.22782673e-16 -1.83245487e-02 -2.93368212e-16  1.73265291e-16 -2.08792232e-15
 -3.87888748e-15 -2.13336931e-15  3.16559875e-02  5.29604217e-17 -2.71703545e-16
 -1.16996630e-15 -1.14861438e-15  3.16559875e-02 -4.00082429e-16 -5.90657289e-17
  4.26122787e-13  1.33684429e-12 -2.03647014e-12 -8.05597854e-16  2.65384717e-01
 -1.10108961e-12  7.48738811e-16  4.92899882e-01  5.27220111e-13 -6.83413656e-15
 -4.37862867e-17  1.13151766e-01  3.54532735e-13  2.44179468e-16 -9.46519683e-01
  6.55039513e-01  8.18852520e-16 -7.87474301e-02  1.60641580e-01  9.46519683e-01
 -6.55039513e-01 -5.16784952e-16 -7.87474301e-02 -1.60641580e-01  1.40006041e-15
  2.47934692e-15 -7.21113783e-15  9.67166329e-01  1.39395525e-14 -2.55103608e-15
 -1.03938592e+00 -3.19996033e-14  3.56664688e-15 -5.77881603e-16 -4.60612681e-03
  7.33517744e-16 -2.43669266e-16 -1.63957920e-14  9.56139298e-15  1.57853354e-14
  9.40062963e-03 -2.62735864e-15  6.76942333e-15 -2.81505710e-15 -1.49079325e-14
  9.40062963e-03 -6.95854191e-15 -9.77123590e-17  7.42489267e-15  1.90220632e-14
 -2.49124126e-14  2.31778409e-13 -5.38785181e-15  5.53433752e-15 -1.08560592e-14
  1.72422174e-14 -2.12652694e-14 -4.21654518e-15  3.09226009e-14 -1.09895941e-15
 -1.36522783e-16  1.28235447e-01 -1.04390954e-14 -2.17989417e-15  6.86460920e-01
  1.12353984e-14  1.53263702e-14 -4.19129559e-15  1.77068076e-14 -6.86460920e-01
 -5.31320502e-15  2.29131362e-14  7.27219169e-13  1.56045165e-12 -3.55811778e-12
 -4.53635932e-16  1.14274760e-02  1.11684368e-13 -1.66131886e-15 -9.24139679e-01
  1.39580070e-12  2.11942695e-13 -5.93461911e-16 -3.07405346e-02 -1.39240690e-13
  5.76740873e-16  4.01256763e-01  9.48441524e-02  3.95954138e-15  4.85451123e-01
  6.89848382e-01 -4.01256763e-01 -9.48441524e-02  1.55027944e-15  4.85451123e-01
 -6.89848382e-01  1.23236942e-15  2.98495418e-15 -3.38270822e-15  3.00826249e-03
  1.58976364e-16 -1.01355597e-16 -3.22001915e-01  4.07698691e-16 -9.38651720e-17
  1.26378033e-15  1.04663037e+00 -9.52472375e-16 -1.48199145e-15  6.23012335e-13
 -8.04682365e-16  8.63076670e-16  4.09240829e-01  2.27655306e-16  4.09245374e-16
 -2.83323269e-16  1.10331120e-15  4.09240829e-01 -3.19309193e-16  3.25916552e-16
  8.24955111e-15 -7.62531084e-13 -2.97759430e-12 -4.66864851e-16  2.77751033e-01
  6.82418922e-13  1.12499840e-16  6.72551857e-01  1.08521505e-12 -2.24494369e-14
 -1.85365693e-16 -2.25601004e-02 -1.05872982e-14  1.89003940e-18 -2.16415537e-02
 -1.47125474e+00  1.60425601e-16  2.21452473e-02 -1.87748922e-02  2.16415537e-02
  1.47125474e+00 -3.89282351e-16  2.21452473e-02  1.87748922e-02  9.46249559e-04
  1.08687282e-01  7.99789189e-01  4.69115591e-15 -1.36717055e-13  7.54801017e-01
 -6.20109476e-15  5.44221770e-13 -1.30118692e+00  1.03136992e-02  7.94529948e-17
  3.94282213e-14  4.03895019e-03 -2.45412187e-16 -5.66884971e-01 -1.18737558e-01
  1.76064012e-15  9.61157932e-02 -2.36525688e-01 -5.66884971e-01 -1.18737558e-01
  1.92866252e-15 -9.61157932e-02 -2.36525688e-01  2.11003899e-01  5.49148945e-01
 -5.85590685e-01 -4.68939133e-15 -6.35306105e-13  1.17553976e-01  5.45377182e-15
  1.21963332e-12 -7.08941058e-01 -1.12512800e-01 -5.97203773e-16 -5.82165054e-14
  1.63931182e-03 -4.22376193e-15 -3.10937558e-01  2.24635083e-01 -2.28857383e-14
  3.03103357e-01  5.65118915e-01 -3.10937558e-01  2.24635083e-01  2.16770756e-14
 -3.03103357e-01  5.65118915e-01  7.13170550e-01  1.56739424e+00 -3.06360736e+00
 -1.33725614e-15 -1.78138043e-13  1.36777149e-01 -5.93714693e-15  1.57459423e-12
  9.68084409e-01  1.15139493e-01 -3.19574855e-15 -1.34815421e-13 -1.06664194e-01
 -9.34840753e-16  8.50193157e-01  3.92351139e-01  6.70604418e-15 -3.81225762e-01
 -4.17609615e-02  8.50193157e-01  3.92351139e-01  8.69748658e-15  3.81225762e-01
 -4.17609615e-02  3.15194397e-01  7.98010971e-01  7.61692514e-01 -1.15846160e-15
 -6.51991091e-15 -6.74283003e-01  9.26922124e-16 -2.33739090e-13 -1.69406947e-01
 -5.80410161e-02  3.08651011e-17 -2.75345261e-15  2.29399206e-01  1.13332212e-15
 -4.95011272e-01 -1.51141355e-01  2.16739197e-16  7.53304947e-01 -5.29327243e-01
 -4.95011272e-01 -1.51141355e-01 -7.52794299e-16 -7.53304947e-01 -5.29327243e-01
  5.21291904e-02 -7.29514564e-02 -1.02105649e+00  1.36002943e-15 -8.25561013e-13
  1.83266198e-01  1.87745843e-15 -2.47045898e-12  3.27101514e-01 -7.16336176e-03
  1.21385443e-16  1.03002239e-13  1.09445149e-02 -2.37360305e-17  5.65532848e-02
  8.37112192e-01 -3.84299898e-16 -1.91880759e-02  1.69865387e-02  5.65532848e-02
  8.37112192e-01 -3.64367431e-16  1.91880759e-02  1.69865387e-02  5.86935490e-02
  2.47811442e-01 -3.03320276e-01  1.85616939e-15 -5.41953293e-13 -3.21881404e-01
 -3.44201066e-15 -1.66236261e-12  1.22860383e-02  6.82574141e-04 -2.65137425e-16
 -3.25895296e-13  1.09713976e-01  1.16688181e-16 -7.78123854e-01  5.34728832e-01
  7.76614706e-16 -3.08258682e-01  5.54019030e-02 -7.78123854e-01  5.34728832e-01
 -1.15296667e-16  3.08258682e-01  5.54019030e-02  3.08274792e-13  7.70081498e-13
 -9.23373443e-13 -1.75609885e-14  7.23848780e-01  4.90978254e-13  1.81702993e-14
 -1.78688883e+00 -6.99733297e-13 -4.29002238e-14 -1.56854605e-16  4.88893880e-02
 -7.96433383e-15  1.36584727e-15  3.93770523e-01  8.49617650e-01  6.01887357e-15
 -3.04200244e-01  1.89043268e-01 -3.93770523e-01 -8.49617650e-01 -4.50451202e-15
 -3.04200244e-01 -1.89043268e-01  6.94420652e-15  1.57984111e-14 -2.98233013e-14
  5.33541706e-02  2.44423845e-15  3.48271907e-15  6.23452138e-01 -4.19339288e-15
  7.21166216e-15  4.40333454e-16  1.59584021e-01  2.17180425e-16  4.88850208e-17
 -9.83580705e-14  9.25485276e-15  3.50075927e-15 -7.72042939e-01 -1.88075927e-15
  8.42392850e-16  7.46780466e-15  2.79946647e-15 -7.72042939e-01  7.50122984e-15
 -2.21971290e-15  4.72041810e-14  1.05763972e-13 -1.28096984e-13 -5.60610810e-16
  8.64527796e-01 -6.26518427e-14 -1.44857687e-16  1.65699911e-01  3.92734612e-14
 -2.15651019e-14  1.98697833e-17  1.50124371e-01  2.94034007e-14  4.61130853e-16
 -3.28228304e-01 -3.27089373e-01  5.01907163e-16  7.28799243e-01 -5.67865418e-01
  3.28228304e-01  3.27089373e-01  2.24171778e-15  7.28799243e-01  5.67865418e-01
  9.00552438e-17 -1.31890942e-16 -4.97628658e-15 -8.75223386e-15 -4.56321169e-16
  1.85909272e-15  2.31159563e-13  4.88807722e-16  5.11077952e-16  3.71749779e-15
 -5.96597237e-13 -6.22193442e-16  2.39651980e-15  1.07403083e+00  1.68824074e-15
  9.00519142e-16 -3.83882023e-01 -1.30055712e-15  2.33263373e-15  2.23801172e-15
  6.46459753e-16  3.83882023e-01  6.05964210e-16  2.90156529e-15  8.61116205e-02
  1.53369280e-01 -6.56120185e-01 -3.70705424e-17  5.78253233e-14  4.66871470e-02
 -1.07676087e-15  5.71126105e-14  5.83486936e-01 -1.09681401e+00  8.97847089e-16
 -1.52391138e-13 -1.26102312e-01  3.40784512e-15  3.60135113e-01  4.74626505e-02
 -7.12814719e-16 -3.79841175e-01 -3.11761728e-01  3.60135113e-01  4.74626505e-02
  3.05773012e-15  3.79841175e-01 -3.11761728e-01  1.09141673e-01  1.07779031e-01
 -2.30587689e+00 -3.32631876e-17  2.53102017e-13  4.33052276e-01 -1.58112917e-15
  7.73127020e-13  9.04744798e-01 -7.38541273e-02  1.21763537e-15 -7.94387351e-13
  1.17508186e+00 -2.41625786e-15  1.28600374e+00  1.91693953e-01  2.47625809e-15
 -6.24777091e-01  5.13202406e-01  1.28600374e+00  1.91693953e-01  1.34753787e-15
  6.24777091e-01  5.13202406e-01  1.29046806e-13  2.00236851e-13 -1.69181568e-12
  3.98206840e-16 -5.08415367e-01  2.67123226e-13 -6.84585545e-16 -1.17629931e+00
  7.13161493e-13 -1.52865237e-13  7.38195267e-16  1.33048820e+00  6.64214734e-13
  2.33046034e-16  1.14528705e+00  2.93857472e-01  1.07288375e-15 -6.24098594e-01
  4.90664878e-01 -1.14528705e+00 -2.93857472e-01  3.06277138e-16 -6.24098594e-01
 -4.90664878e-01
Total SCF Density                          R   N=          300
  2.00393595e+00 -6.00727071e-03  4.34147427e-01 -1.31586537e-02  4.27507152e-01
  5.14110974e-01  4.80099143e-16  2.40481295e-15  1.23549354e-15  7.94979462e-01
 -3.14974501e-14 -4.41517086e-14  2.67693644e-13 -1.56476765e-16  4.83623420e-01
 -4.39505706e-03  9.34455641e-02  3.27333171e-01 -2.06693045e-15 -3.67124646e-16
  6.14736875e-01  9.16846441e-16  1.09245749e-15  6.27754970e-16  6.24259856e-01
  2.39657669e-16 -6.75109383e-16  4.90201805e-01 -2.38993880e-14  7.37101088e-14
  2.38312165e-13  1.03195986e-15  2.11430442e-01  9.48246022e-14  9.68840858e-16
  9.24331411e-02 -9.21567679e-04  1.23812512e-01  2.69437177e-01 -2.72075036e-16
 -1.25956848e-13  3.99435230e-01  2.61795418e-16  1.84461570e-14  2.69022975e-01
  7.73254151e-05 -4.41389622e-03 -1.18403059e-02  3.62389620e-17  7.08430325e-15
 -1.98871064e-02  8.81280481e-19 -2.35602850e-16 -1.31310554e-02  6.47969877e-04
 -3.29882339e-16 -2.33406788e-16 -2.01298785e-16 -2.31060782e-02 -3.78791034e-16
  1.14013301e-17 -1.81441128e-02 -1.97582035e-16 -4.76086780e-17  1.05150985e-18
  6.71578168e-04  3.70804712e-15 -1.00737304e-14 -3.29800603e-14 -4.56054594e-16
 -2.69316822e-02 -1.71487921e-14 -3.78306551e-16 -1.17739903e-02 -5.63028615e-15
  1.93723187e-16  3.46023422e-17  1.49975265e-03 -3.22921543e-04 -1.49607766e-03
  8.88393023e-04  1.60612164e-16 -1.43145325e-14  5.64312767e-03  1.40008822e-16
 -5.82519442e-15  3.31262503e-03 -1.74749483e-04 -4.19032726e-18  6.94880835e-16
  6.50453135e-05 -2.24049606e-17  5.23553789e-18 -1.43171890e-16 -2.63273587e-15
  4.54681311e-17 -3.73866727e-16 -2.06736323e-15  1.98777533e-17 -2.33633854e-16
  1.18902447e-17  7.65204684e-17 -2.53199743e-18 -3.77611234e-18  8.95995756e-30
 -3.46728735e-03  1.14973832e-01  1.88618262e-03 -1.15144200e-15  3.26575572e-01
 -2.56596799e-01 -1.40061967e-15  1.42772278e-01 -1.43597775e-01  7.79121064e-03
 -2.61782934e-16 -1.81861116e-02 -3.21806144e-03  2.09556866e-16  3.84096420e-01
  8.15582299e-04 -2.51719045e-03 -1.88415160e-02 -2.00905285e-15  8.42893131e-02
 -4.18848452e-02 -1.58748487e-15  3.68495941e-02 -2.66361843e-02  1.34222618e-03
 -6.62238734e-18 -4.69384421e-03 -4.06158757e-04  3.39598900e-17  7.58116265e-02
  1.75797949e-02 -5.01358856e-16  6.25177048e-17 -7.78017539e-17  3.99161658e-02
 -3.34765527e-16 -3.28780174e-16  3.13442813e-02 -9.11029251e-17 -1.64187792e-16
  9.19972239e-18 -1.16016337e-03 -4.69397576e-18  6.21587609e-18 -1.32190486e-16
 -1.92578481e-16 -1.42889909e-16  2.00420308e-03  1.82909583e-03 -2.45772810e-02
 -5.93247213e-03 -4.45307717e-16 -2.31989161e-02  4.08869322e-02 -2.34630451e-16
 -1.01421000e-02  2.19428626e-02 -1.22080151e-03  3.92660911e-17  1.29188499e-03
  5.47661238e-04 -3.16194407e-17 -4.40255167e-02 -7.11087741e-03 -2.03360414e-17
  6.09163219e-03 -1.43232681e-03  2.05955975e-02  2.09054820e-02 -2.71700529e-16
  3.21270300e-02  6.00338714e-03 -2.24376849e-16  1.40452920e-02  6.85653911e-03
 -2.59357633e-04 -2.51796740e-17 -1.78906754e-03 -5.50410507e-05  2.29225716e-18
  2.64074997e-02  5.37040419e-03 -3.83823064e-17 -2.58605627e-03  3.11602700e-03
 -3.46728735e-03  1.14973832e-01  1.88618262e-03  1.75347283e-16 -3.26575572e-01
 -2.56596799e-01 -8.48366718e-16 -1.42772278e-01 -1.43597775e-01  7.79121064e-03
  2.17367338e-16  1.81861116e-02 -3.21806144e-03  1.48150490e-16 -5.69558511e-02
 -3.80241782e-02  3.15542302e-16 -1.26945308e-02 -1.69812311e-02  3.84096420e-01
  8.15582299e-04 -2.51719045e-03 -1.88415160e-02 -1.30650852e-15 -8.42893131e-02
 -4.18848452e-02 -1.16217907e-15 -3.68495941e-02 -2.66361843e-02  1.34222618e-03
  1.06580241e-16  4.69384421e-03 -4.06158757e-04  1.81108745e-17 -3.80241782e-02
 -1.18012813e-02  6.33701282e-18  9.75665214e-04 -5.82824823e-03  7.58116265e-02
  1.75797949e-02 -6.41671572e-16  4.84161864e-16  2.65691423e-16  3.99161658e-02
 -8.97417552e-17 -4.20237281e-16  3.13442813e-02  1.60165446e-17 -1.58359339e-16
  1.07214368e-17 -1.16016337e-03 -1.83386879e-17  2.95609748e-18 -1.32190486e-16
  1.70979537e-16 -8.99995034e-17  2.00420308e-03 -7.02260285e-17 -2.50719429e-18
  3.48186742e-16 -2.61815367e-17  2.00420308e-03 -1.82909583e-03  2.45772810e-02
  5.93247213e-03 -1.40785932e-16 -2.31989161e-02 -4.08869322e-02 -2.60381756e-16
 -1.01421000e-02 -2.19428626e-02  1.22080151e-03  1.45454759e-17  1.29188499e-03
 -5.47661238e-04  2.72573221e-17  1.26945308e-02 -9.75665214e-04  2.22710504e-17
 -3.86597609e-03 -4.96144644e-04  4.40255167e-02  7.11087741e-03  4.86539629e-17
  6.09163219e-03 -1.43232681e-03  2.05955975e-02  2.09054820e-02 -2.09082941e-16
 -3.21270300e-02  6.00338714e-03 -2.23372036e-16 -1.40452920e-02  6.85653911e-03
 -2.59357633e-04  2.39306525e-17  1.78906754e-03 -5.50410507e-05 -3.74862487e-18
 -1.69812311e-02 -5.82824823e-03  8.19474291e-18  4.96144644e-04 -1.15236042e-03
  2.64074997e-02  5.37040419e-03  1.15160715e-17  2.58605627e-03  3.11602700e-03
Natural orbital occupancies                R   N=           20
  1.00000000e+00  1.00000000e+00  1.00000000e+00  1.00000000e+00  1.00000000e+00
  0.00000000e+00  0.00000000e+00  0.00000000e+00  0.00000000e+00  0.00000000e+00
  0.00000000e+00  0.00000000e+00  0.00000000e+00  0.00000000e+00  0.00000000e+00
  0.00000000e+00  0.00000000e+00  0.00000000e+00  0.00000000e+00  0.00000000e+00
