
Host: HP-Pavilion-Gaming-Laptop-15-ec1xxx

Timers On : Sun Apr 17 11:25:26 2022
Timers Off: Sun Apr 17 11:25:48 2022

Wall Time:       21.58 seconds

                                                       Time (seconds)
Module                                       User      System        Wall        Calls
Libint2ERI::Libint2ERI              :      0.000u      0.000s      0.000w      1 calls

--------------------------------------------------------------------------------------
Libint2ERI::Libint2ERI              :      0.000u      0.000s      0.000w      1 calls

**************************************************************************************

Host: HP-Pavilion-Gaming-Laptop-15-ec1xxx

Timers On : Sun Apr 17 17:19:16 2022
Timers Off: Sun Apr 17 17:19:17 2022

Wall Time:        1.22 seconds

                                                       Time (seconds)
Module                                       User      System        Wall        Calls

--------------------------------------------------------------------------------------

**************************************************************************************

Host: HP-Pavilion-Gaming-Laptop-15-ec1xxx

Timers On : Sun Apr 17 17:19:26 2022
Timers Off: Sun Apr 17 17:19:46 2022

Wall Time:       19.77 seconds

                                                       Time (seconds)
Module                                       User      System        Wall        Calls
Libint2ERI::Libint2ERI              :      0.000u      0.000s      0.000w      1 calls

--------------------------------------------------------------------------------------
Libint2ERI::Libint2ERI              :      0.000u      0.000s      0.000w      1 calls

**************************************************************************************

Host: HP-Pavilion-Gaming-Laptop-15-ec1xxx

Timers On : Sun Apr 17 17:20:43 2022
Timers Off: Sun Apr 17 17:21:03 2022

Wall Time:       19.94 seconds

                                                       Time (seconds)
Module                                       User      System        Wall        Calls
Libint2ERI::Libint2ERI              :      0.000u      0.000s      0.000w      1 calls

--------------------------------------------------------------------------------------
Libint2ERI::Libint2ERI              :      0.000u      0.000s      0.000w      1 calls

**************************************************************************************

Host: HP-Pavilion-Gaming-Laptop-15-ec1xxx

Timers On : Sun Apr 17 17:23:00 2022
Timers Off: Sun Apr 17 17:23:21 2022

Wall Time:       20.60 seconds

                                                       Time (seconds)
Module                                       User      System        Wall        Calls
Libint2ERI::Libint2ERI              :      0.000u      0.000s      0.000w      1 calls

--------------------------------------------------------------------------------------
Libint2ERI::Libint2ERI              :      0.000u      0.000s      0.000w      1 calls

**************************************************************************************

Host: HP-Pavilion-Gaming-Laptop-15-ec1xxx

Timers On : Sun Apr 17 17:23:49 2022
Timers Off: Sun Apr 17 17:24:10 2022

Wall Time:       20.67 seconds

                                                       Time (seconds)
Module                                       User      System        Wall        Calls
Libint2ERI::Libint2ERI              :      0.000u      0.000s      0.000w      1 calls

--------------------------------------------------------------------------------------
Libint2ERI::Libint2ERI              :      0.000u      0.000s      0.000w      1 calls

**************************************************************************************

Host: HP-Pavilion-Gaming-Laptop-15-ec1xxx

Timers On : Sun Apr 17 17:40:02 2022
Timers Off: Sun Apr 17 17:40:22 2022

Wall Time:       19.68 seconds

                                                       Time (seconds)
Module                                       User      System        Wall        Calls
Libint2ERI::Libint2ERI              :      0.000u      0.000s      0.000w      1 calls

--------------------------------------------------------------------------------------
Libint2ERI::Libint2ERI              :      0.000u      0.000s      0.000w      1 calls

**************************************************************************************

Host: HP-Pavilion-Gaming-Laptop-15-ec1xxx

Timers On : Sun Apr 17 17:40:49 2022
Timers Off: Sun Apr 17 17:41:10 2022

Wall Time:       20.28 seconds

                                                       Time (seconds)
Module                                       User      System        Wall        Calls
Libint2ERI::Libint2ERI              :      0.000u      0.000s      0.000w      1 calls

--------------------------------------------------------------------------------------
Libint2ERI::Libint2ERI              :      0.000u      0.000s      0.000w      1 calls

**************************************************************************************

Host: HP-Pavilion-Gaming-Laptop-15-ec1xxx

Timers On : Sun Apr 17 17:49:00 2022
Timers Off: Sun Apr 17 17:49:20 2022

Wall Time:       20.01 seconds

                                                       Time (seconds)
Module                                       User      System        Wall        Calls
Libint2ERI::Libint2ERI              :      0.000u      0.000s      0.000w      1 calls

--------------------------------------------------------------------------------------
Libint2ERI::Libint2ERI              :      0.000u      0.000s      0.000w      1 calls

**************************************************************************************

Host: HP-Pavilion-Gaming-Laptop-15-ec1xxx

Timers On : Sun Apr 17 18:24:41 2022
Timers Off: Sun Apr 17 18:24:42 2022

Wall Time:        0.22 seconds

                                                       Time (seconds)
Module                                       User      System        Wall        Calls

--------------------------------------------------------------------------------------

**************************************************************************************

Host: HP-Pavilion-Gaming-Laptop-15-ec1xxx

Timers On : Sun Apr 17 18:25:01 2022
Timers Off: Sun Apr 17 18:25:17 2022

Wall Time:       16.32 seconds

                                                       Time (seconds)
Module                                       User      System        Wall        Calls
Libint2ERI::Libint2ERI              :      0.000u      0.000s      0.000w      1 calls

--------------------------------------------------------------------------------------
Libint2ERI::Libint2ERI              :      0.000u      0.000s      0.000w      1 calls

**************************************************************************************

Host: HP-Pavilion-Gaming-Laptop-15-ec1xxx

Timers On : Sun Apr 17 18:25:51 2022
Timers Off: Sun Apr 17 18:26:06 2022

Wall Time:       15.59 seconds

                                                       Time (seconds)
Module                                       User      System        Wall        Calls
Libint2ERI::Libint2ERI              :      0.000u      0.000s      0.000w      1 calls

--------------------------------------------------------------------------------------
Libint2ERI::Libint2ERI              :      0.000u      0.000s      0.000w      1 calls

**************************************************************************************

Host: HP-Pavilion-Gaming-Laptop-15-ec1xxx

Timers On : Sun Apr 17 18:28:20 2022
Timers Off: Sun Apr 17 18:28:35 2022

Wall Time:       15.67 seconds

                                                       Time (seconds)
Module                                       User      System        Wall        Calls
Libint2ERI::Libint2ERI              :      0.000u      0.000s      0.000w      1 calls

--------------------------------------------------------------------------------------
Libint2ERI::Libint2ERI              :      0.000u      0.000s      0.000w      1 calls

**************************************************************************************

Host: HP-Pavilion-Gaming-Laptop-15-ec1xxx

Timers On : Sun Apr 17 18:30:37 2022
Timers Off: Sun Apr 17 18:30:53 2022

Wall Time:       15.67 seconds

                                                       Time (seconds)
Module                                       User      System        Wall        Calls
Libint2ERI::Libint2ERI              :      0.000u      0.000s      0.000w      1 calls

--------------------------------------------------------------------------------------
Libint2ERI::Libint2ERI              :      0.000u      0.000s      0.000w      1 calls

**************************************************************************************

Host: HP-Pavilion-Gaming-Laptop-15-ec1xxx

Timers On : Sun Apr 17 18:32:48 2022
Timers Off: Sun Apr 17 18:33:04 2022

Wall Time:       15.72 seconds

                                                       Time (seconds)
Module                                       User      System        Wall        Calls
Libint2ERI::Libint2ERI              :      0.000u      0.000s      0.000w      1 calls

--------------------------------------------------------------------------------------
Libint2ERI::Libint2ERI              :      0.000u      0.000s      0.000w      1 calls

**************************************************************************************

Host: HP-Pavilion-Gaming-Laptop-15-ec1xxx

Timers On : Sun Apr 17 18:34:18 2022
Timers Off: Sun Apr 17 18:34:34 2022

Wall Time:       15.72 seconds

                                                       Time (seconds)
Module                                       User      System        Wall        Calls
Libint2ERI::Libint2ERI              :      0.000u      0.000s      0.000w      1 calls

--------------------------------------------------------------------------------------
Libint2ERI::Libint2ERI              :      0.000u      0.000s      0.000w      1 calls

**************************************************************************************

Host: HP-Pavilion-Gaming-Laptop-15-ec1xxx

Timers On : Sun Apr 17 18:36:12 2022
Timers Off: Sun Apr 17 18:36:28 2022

Wall Time:       15.65 seconds

                                                       Time (seconds)
Module                                       User      System        Wall        Calls
Libint2ERI::Libint2ERI              :      0.000u      0.000s      0.000w      1 calls

--------------------------------------------------------------------------------------
Libint2ERI::Libint2ERI              :      0.000u      0.000s      0.000w      1 calls

**************************************************************************************

Host: HP-Pavilion-Gaming-Laptop-15-ec1xxx

Timers On : Sun Apr 17 19:00:13 2022
Timers Off: Sun Apr 17 19:00:29 2022

Wall Time:       15.60 seconds

                                                       Time (seconds)
Module                                       User      System        Wall        Calls
Libint2ERI::Libint2ERI              :      0.000u      0.000s      0.000w      1 calls

--------------------------------------------------------------------------------------
Libint2ERI::Libint2ERI              :      0.000u      0.000s      0.000w      1 calls

**************************************************************************************

Host: HP-Pavilion-Gaming-Laptop-15-ec1xxx

Timers On : Sun Apr 17 19:00:47 2022
Timers Off: Sun Apr 17 19:01:03 2022

Wall Time:       15.68 seconds

                                                       Time (seconds)
Module                                       User      System        Wall        Calls
Libint2ERI::Libint2ERI              :      0.000u      0.000s      0.000w      1 calls

--------------------------------------------------------------------------------------
Libint2ERI::Libint2ERI              :      0.000u      0.000s      0.000w      1 calls

**************************************************************************************

Host: HP-Pavilion-Gaming-Laptop-15-ec1xxx

Timers On : Sun Apr 17 19:03:02 2022
Timers Off: Sun Apr 17 19:03:18 2022

Wall Time:       15.54 seconds

                                                       Time (seconds)
Module                                       User      System        Wall        Calls
Libint2ERI::Libint2ERI              :      0.000u      0.000s      0.000w      1 calls

--------------------------------------------------------------------------------------
Libint2ERI::Libint2ERI              :      0.000u      0.000s      0.000w      1 calls

**************************************************************************************

Host: HP-Pavilion-Gaming-Laptop-15-ec1xxx

Timers On : Sun Apr 17 19:09:42 2022
Timers Off: Sun Apr 17 19:09:58 2022

Wall Time:       15.56 seconds

                                                       Time (seconds)
Module                                       User      System        Wall        Calls
Libint2ERI::Libint2ERI              :      0.000u      0.000s      0.000w      1 calls

--------------------------------------------------------------------------------------
Libint2ERI::Libint2ERI              :      0.000u      0.000s      0.000w      1 calls

**************************************************************************************

Host: HP-Pavilion-Gaming-Laptop-15-ec1xxx

Timers On : Sun Apr 17 19:12:49 2022
Timers Off: Sun Apr 17 19:13:04 2022

Wall Time:       15.57 seconds

                                                       Time (seconds)
Module                                       User      System        Wall        Calls
Libint2ERI::Libint2ERI              :      0.000u      0.000s      0.000w      1 calls

--------------------------------------------------------------------------------------
Libint2ERI::Libint2ERI              :      0.000u      0.000s      0.000w      1 calls

**************************************************************************************

Host: HP-Pavilion-Gaming-Laptop-15-ec1xxx

Timers On : Sun Apr 17 19:13:34 2022
Timers Off: Sun Apr 17 19:13:50 2022

Wall Time:       15.57 seconds

                                                       Time (seconds)
Module                                       User      System        Wall        Calls
Libint2ERI::Libint2ERI              :      0.000u      0.000s      0.000w      1 calls

--------------------------------------------------------------------------------------
Libint2ERI::Libint2ERI              :      0.000u      0.000s      0.000w      1 calls

**************************************************************************************

Host: HP-Pavilion-Gaming-Laptop-15-ec1xxx

Timers On : Sun Apr 17 19:14:50 2022
Timers Off: Sun Apr 17 19:15:07 2022

Wall Time:       16.11 seconds

                                                       Time (seconds)
Module                                       User      System        Wall        Calls
Libint2ERI::Libint2ERI              :      0.000u      0.000s      0.000w      1 calls

--------------------------------------------------------------------------------------
Libint2ERI::Libint2ERI              :      0.000u      0.000s      0.000w      1 calls

**************************************************************************************

Host: HP-Pavilion-Gaming-Laptop-15-ec1xxx

Timers On : Sun Apr 17 19:22:53 2022
Timers Off: Sun Apr 17 19:23:09 2022

Wall Time:       15.60 seconds

                                                       Time (seconds)
Module                                       User      System        Wall        Calls
Libint2ERI::Libint2ERI              :      0.000u      0.000s      0.000w      1 calls

--------------------------------------------------------------------------------------
Libint2ERI::Libint2ERI              :      0.000u      0.000s      0.000w      1 calls

**************************************************************************************

Host: HP-Pavilion-Gaming-Laptop-15-ec1xxx

Timers On : Sun Apr 17 19:32:44 2022
Timers Off: Sun Apr 17 19:33:00 2022

Wall Time:       15.59 seconds

                                                       Time (seconds)
Module                                       User      System        Wall        Calls
Libint2ERI::Libint2ERI              :      0.000u      0.017s      0.000w      1 calls

--------------------------------------------------------------------------------------
Libint2ERI::Libint2ERI              :      0.000u      0.017s      0.000w      1 calls

**************************************************************************************

Host: HP-Pavilion-Gaming-Laptop-15-ec1xxx

Timers On : Sun Apr 17 20:14:12 2022
Timers Off: Sun Apr 17 20:14:13 2022

Wall Time:        0.63 seconds

                                                       Time (seconds)
Module                                       User      System        Wall        Calls

--------------------------------------------------------------------------------------

**************************************************************************************

Host: HP-Pavilion-Gaming-Laptop-15-ec1xxx

Timers On : Sun Apr 17 20:16:21 2022
Timers Off: Sun Apr 17 20:16:21 2022

Wall Time:        0.22 seconds

                                                       Time (seconds)
Module                                       User      System        Wall        Calls

--------------------------------------------------------------------------------------

**************************************************************************************

Host: HP-Pavilion-Gaming-Laptop-15-ec1xxx

Timers On : Sun Apr 17 20:16:31 2022
Timers Off: Sun Apr 17 20:16:48 2022

Wall Time:       16.69 seconds

                                                       Time (seconds)
Module                                       User      System        Wall        Calls
Libint2ERI::Libint2ERI              :      0.000u      0.000s      0.000w      1 calls

--------------------------------------------------------------------------------------
Libint2ERI::Libint2ERI              :      0.000u      0.000s      0.000w      1 calls

**************************************************************************************

Host: HP-Pavilion-Gaming-Laptop-15-ec1xxx

Timers On : Sun Apr 17 20:22:35 2022
Timers Off: Sun Apr 17 20:22:59 2022

Wall Time:       23.49 seconds

                                                       Time (seconds)
Module                                       User      System        Wall        Calls
Libint2ERI::Libint2ERI              :      0.000u      0.000s      0.000w      1 calls

--------------------------------------------------------------------------------------
Libint2ERI::Libint2ERI              :      0.000u      0.000s      0.000w      1 calls

**************************************************************************************

Host: HP-Pavilion-Gaming-Laptop-15-ec1xxx

Timers On : Sun Apr 17 20:28:59 2022
Timers Off: Sun Apr 17 20:29:24 2022

Wall Time:       25.02 seconds

                                                       Time (seconds)
Module                                       User      System        Wall        Calls
Libint2ERI::Libint2ERI              :      0.000u      0.000s      0.000w      2 calls

--------------------------------------------------------------------------------------
Libint2ERI::Libint2ERI              :      0.000u      0.000s      0.000w      2 calls

**************************************************************************************

Host: HP-Pavilion-Gaming-Laptop-15-ec1xxx

Timers On : Sun Apr 17 20:33:50 2022
Timers Off: Sun Apr 17 20:34:11 2022

Wall Time:       20.75 seconds

                                                       Time (seconds)
Module                                       User      System        Wall        Calls
Libint2ERI::Libint2ERI              :      0.000u      0.000s      0.000w      2 calls

--------------------------------------------------------------------------------------
Libint2ERI::Libint2ERI              :      0.000u      0.000s      0.000w      2 calls

**************************************************************************************

Host: HP-Pavilion-Gaming-Laptop-15-ec1xxx

Timers On : Sun Apr 17 20:34:39 2022
Timers Off: Sun Apr 17 20:35:01 2022

Wall Time:       21.83 seconds

                                                       Time (seconds)
Module                                       User      System        Wall        Calls
Libint2ERI::Libint2ERI              :      0.000u      0.000s      0.000w      2 calls

--------------------------------------------------------------------------------------
Libint2ERI::Libint2ERI              :      0.000u      0.000s      0.000w      2 calls

**************************************************************************************

Host: HP-Pavilion-Gaming-Laptop-15-ec1xxx

Timers On : Sun Apr 17 20:35:51 2022
Timers Off: Sun Apr 17 20:36:24 2022

Wall Time:       33.19 seconds

                                                       Time (seconds)
Module                                       User      System        Wall        Calls
Libint2ERI::Libint2ERI              :      0.000u      0.000s      0.000w      2 calls

--------------------------------------------------------------------------------------
Libint2ERI::Libint2ERI              :      0.000u      0.000s      0.000w      2 calls

**************************************************************************************

Host: HP-Pavilion-Gaming-Laptop-15-ec1xxx

Timers On : Sun Apr 17 20:37:54 2022
Timers Off: Sun Apr 17 20:38:26 2022

Wall Time:       31.39 seconds

                                                       Time (seconds)
Module                                       User      System        Wall        Calls
Libint2ERI::Libint2ERI              :      0.000u      0.000s      0.000w      2 calls

--------------------------------------------------------------------------------------
Libint2ERI::Libint2ERI              :      0.000u      0.000s      0.000w      2 calls

**************************************************************************************

Host: HP-Pavilion-Gaming-Laptop-15-ec1xxx

Timers On : Sun Apr 17 20:42:04 2022
Timers Off: Sun Apr 17 20:42:35 2022

Wall Time:       31.24 seconds

                                                       Time (seconds)
Module                                       User      System        Wall        Calls
Libint2ERI::Libint2ERI              :      0.000u      0.000s      0.000w      2 calls

--------------------------------------------------------------------------------------
Libint2ERI::Libint2ERI              :      0.000u      0.000s      0.000w      2 calls

**************************************************************************************

Host: HP-Pavilion-Gaming-Laptop-15-ec1xxx

Timers On : Sun Apr 17 20:43:21 2022
Timers Off: Sun Apr 17 20:43:53 2022

Wall Time:       32.27 seconds

                                                       Time (seconds)
Module                                       User      System        Wall        Calls
Libint2ERI::Libint2ERI              :      0.000u      0.000s      0.000w      2 calls

--------------------------------------------------------------------------------------
Libint2ERI::Libint2ERI              :      0.000u      0.000s      0.000w      2 calls

**************************************************************************************

Host: HP-Pavilion-Gaming-Laptop-15-ec1xxx

Timers On : Sun Apr 17 20:44:39 2022
Timers Off: Sun Apr 17 20:45:11 2022

Wall Time:       32.26 seconds

                                                       Time (seconds)
Module                                       User      System        Wall        Calls
Libint2ERI::Libint2ERI              :      0.000u      0.000s      0.000w      2 calls

--------------------------------------------------------------------------------------
Libint2ERI::Libint2ERI              :      0.000u      0.000s      0.000w      2 calls

**************************************************************************************

Host: HP-Pavilion-Gaming-Laptop-15-ec1xxx

Timers On : Sun Apr 17 20:45:27 2022
Timers Off: Sun Apr 17 20:45:45 2022

Wall Time:       18.56 seconds

                                                       Time (seconds)
Module                                       User      System        Wall        Calls
Libint2ERI::Libint2ERI              :      0.000u      0.000s      0.000w      2 calls

--------------------------------------------------------------------------------------
Libint2ERI::Libint2ERI              :      0.000u      0.000s      0.000w      2 calls

**************************************************************************************

Host: HP-Pavilion-Gaming-Laptop-15-ec1xxx

Timers On : Sun Apr 17 20:47:30 2022
Timers Off: Sun Apr 17 20:48:02 2022

Wall Time:       32.64 seconds

                                                       Time (seconds)
Module                                       User      System        Wall        Calls
Libint2ERI::Libint2ERI              :      0.000u      0.000s      0.000w      2 calls

--------------------------------------------------------------------------------------
Libint2ERI::Libint2ERI              :      0.000u      0.000s      0.000w      2 calls

**************************************************************************************

Host: HP-Pavilion-Gaming-Laptop-15-ec1xxx

Timers On : Sun Apr 17 21:36:45 2022
Timers Off: Sun Apr 17 21:37:01 2022

Wall Time:       15.94 seconds

                                                       Time (seconds)
Module                                       User      System        Wall        Calls
Libint2ERI::Libint2ERI              :      0.000u      0.000s      0.000w      2 calls

--------------------------------------------------------------------------------------
Libint2ERI::Libint2ERI              :      0.000u      0.000s      0.000w      2 calls

**************************************************************************************

Host: HP-Pavilion-Gaming-Laptop-15-ec1xxx

Timers On : Sun Apr 17 21:38:31 2022
Timers Off: Sun Apr 17 21:38:49 2022

Wall Time:       17.65 seconds

                                                       Time (seconds)
Module                                       User      System        Wall        Calls
Libint2ERI::Libint2ERI              :      0.000u      0.017s      0.000w      2 calls

--------------------------------------------------------------------------------------
Libint2ERI::Libint2ERI              :      0.000u      0.017s      0.000w      2 calls

**************************************************************************************

Host: HP-Pavilion-Gaming-Laptop-15-ec1xxx

Timers On : Sun Apr 17 21:39:05 2022
Timers Off: Sun Apr 17 21:39:23 2022

Wall Time:       17.84 seconds

                                                       Time (seconds)
Module                                       User      System        Wall        Calls
Libint2ERI::Libint2ERI              :      0.000u      0.000s      0.000w      2 calls

--------------------------------------------------------------------------------------
Libint2ERI::Libint2ERI              :      0.000u      0.000s      0.000w      2 calls

**************************************************************************************

Host: HP-Pavilion-Gaming-Laptop-15-ec1xxx

Timers On : Sun Apr 17 21:39:29 2022
Timers Off: Sun Apr 17 21:39:29 2022

Wall Time:        0.64 seconds

                                                       Time (seconds)
Module                                       User      System        Wall        Calls

--------------------------------------------------------------------------------------

**************************************************************************************

Host: HP-Pavilion-Gaming-Laptop-15-ec1xxx

Timers On : Sun Apr 17 21:39:42 2022
Timers Off: Sun Apr 17 21:41:47 2022

Wall Time:      125.40 seconds

                                                       Time (seconds)
Module                                       User      System        Wall        Calls
Libint2ERI::Libint2ERI              :      0.000u      0.000s      0.000w      2 calls

--------------------------------------------------------------------------------------
Libint2ERI::Libint2ERI              :      0.000u      0.000s      0.000w      2 calls

**************************************************************************************

Host: HP-Pavilion-Gaming-Laptop-15-ec1xxx

Timers On : Sun Apr 17 21:42:07 2022
Timers Off: Sun Apr 17 21:44:19 2022

Wall Time:      131.61 seconds

                                                       Time (seconds)
Module                                       User      System        Wall        Calls
Libint2ERI::Libint2ERI              :      0.000u      0.000s      0.000w      2 calls

--------------------------------------------------------------------------------------
Libint2ERI::Libint2ERI              :      0.000u      0.000s      0.000w      2 calls

**************************************************************************************

Host: HP-Pavilion-Gaming-Laptop-15-ec1xxx

Timers On : Sun Apr 17 21:45:44 2022
Timers Off: Sun Apr 17 21:47:24 2022

Wall Time:       99.63 seconds

                                                       Time (seconds)
Module                                       User      System        Wall        Calls
Libint2ERI::Libint2ERI              :      0.000u      0.000s      0.000w      2 calls

--------------------------------------------------------------------------------------
Libint2ERI::Libint2ERI              :      0.000u      0.000s      0.000w      2 calls

**************************************************************************************

Host: HP-Pavilion-Gaming-Laptop-15-ec1xxx

Timers On : Sun Apr 17 21:48:18 2022
Timers Off: Sun Apr 17 21:49:36 2022

Wall Time:       77.51 seconds

                                                       Time (seconds)
Module                                       User      System        Wall        Calls
Libint2ERI::Libint2ERI              :      0.000u      0.000s      0.000w      2 calls

--------------------------------------------------------------------------------------
Libint2ERI::Libint2ERI              :      0.000u      0.000s      0.000w      2 calls

**************************************************************************************

Host: HP-Pavilion-Gaming-Laptop-15-ec1xxx

Timers On : Sun Apr 17 21:54:14 2022
Timers Off: Sun Apr 17 21:54:34 2022

Wall Time:       19.68 seconds

                                                       Time (seconds)
Module                                       User      System        Wall        Calls
Libint2ERI::Libint2ERI              :      0.000u      0.000s      0.001w      2 calls

--------------------------------------------------------------------------------------
Libint2ERI::Libint2ERI              :      0.000u      0.000s      0.001w      2 calls

**************************************************************************************

Host: HP-Pavilion-Gaming-Laptop-15-ec1xxx

Timers On : Sun Apr 17 22:00:14 2022
Timers Off: Sun Apr 17 22:01:37 2022

Wall Time:       82.81 seconds

                                                       Time (seconds)
Module                                       User      System        Wall        Calls
Libint2ERI::Libint2ERI              :      0.000u      0.000s      0.000w      2 calls

--------------------------------------------------------------------------------------
Libint2ERI::Libint2ERI              :      0.000u      0.000s      0.000w      2 calls

**************************************************************************************

Host: HP-Pavilion-Gaming-Laptop-15-ec1xxx

Timers On : Sun Apr 17 22:07:24 2022
Timers Off: Sun Apr 17 22:07:55 2022

Wall Time:       30.82 seconds

                                                       Time (seconds)
Module                                       User      System        Wall        Calls
Libint2ERI::Libint2ERI              :      0.000u      0.000s      0.000w      2 calls

--------------------------------------------------------------------------------------
Libint2ERI::Libint2ERI              :      0.000u      0.000s      0.000w      2 calls

**************************************************************************************

Host: HP-Pavilion-Gaming-Laptop-15-ec1xxx

Timers On : Sun Apr 17 22:09:07 2022
Timers Off: Sun Apr 17 22:09:38 2022

Wall Time:       31.07 seconds

                                                       Time (seconds)
Module                                       User      System        Wall        Calls
Libint2ERI::Libint2ERI              :      0.000u      0.000s      0.000w      2 calls

--------------------------------------------------------------------------------------
Libint2ERI::Libint2ERI              :      0.000u      0.000s      0.000w      2 calls

**************************************************************************************

Host: HP-Pavilion-Gaming-Laptop-15-ec1xxx

Timers On : Sun Apr 17 22:11:40 2022
Timers Off: Sun Apr 17 22:12:07 2022

Wall Time:       27.12 seconds

                                                       Time (seconds)
Module                                       User      System        Wall        Calls
Libint2ERI::Libint2ERI              :      0.000u      0.000s      0.000w      2 calls

--------------------------------------------------------------------------------------
Libint2ERI::Libint2ERI              :      0.000u      0.000s      0.000w      2 calls

**************************************************************************************

Host: HP-Pavilion-Gaming-Laptop-15-ec1xxx

Timers On : Sun Apr 17 22:12:50 2022
Timers Off: Sun Apr 17 22:13:56 2022

Wall Time:       65.47 seconds

                                                       Time (seconds)
Module                                       User      System        Wall        Calls
Libint2ERI::Libint2ERI              :      0.000u      0.000s      0.000w      2 calls

--------------------------------------------------------------------------------------
Libint2ERI::Libint2ERI              :      0.000u      0.000s      0.000w      2 calls

**************************************************************************************

Host: HP-Pavilion-Gaming-Laptop-15-ec1xxx

Timers On : Sun Apr 17 22:23:13 2022
Timers Off: Sun Apr 17 22:23:34 2022

Wall Time:       21.47 seconds

                                                       Time (seconds)
Module                                       User      System        Wall        Calls
Libint2ERI::Libint2ERI              :      0.000u      0.000s      0.000w      2 calls

--------------------------------------------------------------------------------------
Libint2ERI::Libint2ERI              :      0.000u      0.000s      0.000w      2 calls

**************************************************************************************

Host: HP-Pavilion-Gaming-Laptop-15-ec1xxx

Timers On : Sun Apr 17 22:25:23 2022
Timers Off: Sun Apr 17 22:26:25 2022

Wall Time:       62.36 seconds

                                                       Time (seconds)
Module                                       User      System        Wall        Calls
Libint2ERI::Libint2ERI              :      0.000u      0.000s      0.000w      2 calls

--------------------------------------------------------------------------------------
Libint2ERI::Libint2ERI              :      0.000u      0.000s      0.000w      2 calls

**************************************************************************************

Host: HP-Pavilion-Gaming-Laptop-15-ec1xxx

Timers On : Sun Apr 17 22:50:42 2022
Timers Off: Sun Apr 17 22:54:05 2022

Wall Time:      202.52 seconds

                                                       Time (seconds)
Module                                       User      System        Wall        Calls
Libint2ERI::Libint2ERI              :      0.000u      0.000s      0.000w      2 calls

--------------------------------------------------------------------------------------
Libint2ERI::Libint2ERI              :      0.000u      0.000s      0.000w      2 calls

**************************************************************************************

Host: HP-Pavilion-Gaming-Laptop-15-ec1xxx

Timers On : Sun Apr 17 23:11:54 2022
Timers Off: Sun Apr 17 23:15:09 2022

Wall Time:      195.37 seconds

                                                       Time (seconds)
Module                                       User      System        Wall        Calls
Libint2ERI::Libint2ERI              :      0.000u      0.000s      0.000w      2 calls

--------------------------------------------------------------------------------------
Libint2ERI::Libint2ERI              :      0.000u      0.000s      0.000w      2 calls

**************************************************************************************

Host: HP-Pavilion-Gaming-Laptop-15-ec1xxx

Timers On : Sun Apr 17 23:15:45 2022
Timers Off: Sun Apr 17 23:19:00 2022

Wall Time:      195.44 seconds

                                                       Time (seconds)
Module                                       User      System        Wall        Calls
Libint2ERI::Libint2ERI              :      0.000u      0.000s      0.000w      2 calls

--------------------------------------------------------------------------------------
Libint2ERI::Libint2ERI              :      0.000u      0.000s      0.000w      2 calls

**************************************************************************************

Host: HP-Pavilion-Gaming-Laptop-15-ec1xxx

Timers On : Sun Apr 17 23:31:05 2022
Timers Off: Sun Apr 17 23:31:26 2022

Wall Time:       20.20 seconds

                                                       Time (seconds)
Module                                       User      System        Wall        Calls
Libint2ERI::Libint2ERI              :      0.000u      0.000s      0.000w      2 calls

--------------------------------------------------------------------------------------
Libint2ERI::Libint2ERI              :      0.000u      0.000s      0.000w      2 calls

**************************************************************************************

Host: HP-Pavilion-Gaming-Laptop-15-ec1xxx

Timers On : Sun Apr 17 23:32:08 2022
Timers Off: Sun Apr 17 23:32:32 2022

Wall Time:       23.30 seconds

                                                       Time (seconds)
Module                                       User      System        Wall        Calls
Libint2ERI::Libint2ERI              :      0.000u      0.000s      0.001w      2 calls

--------------------------------------------------------------------------------------
Libint2ERI::Libint2ERI              :      0.000u      0.000s      0.001w      2 calls

**************************************************************************************

Host: HP-Pavilion-Gaming-Laptop-15-ec1xxx

Timers On : Sun Apr 17 23:33:59 2022
Timers Off: Sun Apr 17 23:34:22 2022

Wall Time:       23.27 seconds

                                                       Time (seconds)
Module                                       User      System        Wall        Calls
Libint2ERI::Libint2ERI              :      0.000u      0.000s      0.000w      2 calls

--------------------------------------------------------------------------------------
Libint2ERI::Libint2ERI              :      0.000u      0.000s      0.000w      2 calls

**************************************************************************************

Host: HP-Pavilion-Gaming-Laptop-15-ec1xxx

Timers On : Sun Apr 17 23:46:53 2022
Timers Off: Sun Apr 17 23:47:25 2022

Wall Time:       32.18 seconds

                                                       Time (seconds)
Module                                       User      System        Wall        Calls
Libint2ERI::Libint2ERI              :      0.000u      0.000s      0.000w      2 calls

--------------------------------------------------------------------------------------
Libint2ERI::Libint2ERI              :      0.000u      0.000s      0.000w      2 calls

**************************************************************************************

Host: HP-Pavilion-Gaming-Laptop-15-ec1xxx

Timers On : Sun Apr 17 23:51:13 2022
Timers Off: Sun Apr 17 23:51:45 2022

Wall Time:       32.31 seconds

                                                       Time (seconds)
Module                                       User      System        Wall        Calls
Libint2ERI::Libint2ERI              :      0.000u      0.000s      0.000w      2 calls

--------------------------------------------------------------------------------------
Libint2ERI::Libint2ERI              :      0.000u      0.000s      0.000w      2 calls

**************************************************************************************

Host: HP-Pavilion-Gaming-Laptop-15-ec1xxx

Timers On : Sun Apr 17 23:59:31 2022
Timers Off: Mon Apr 18 00:00:02 2022

Wall Time:       30.59 seconds

                                                       Time (seconds)
Module                                       User      System        Wall        Calls
Libint2ERI::Libint2ERI              :      0.000u      0.000s      0.000w      2 calls

--------------------------------------------------------------------------------------
Libint2ERI::Libint2ERI              :      0.000u      0.000s      0.000w      2 calls

**************************************************************************************

Host: HP-Pavilion-Gaming-Laptop-15-ec1xxx

Timers On : Mon Apr 18 00:02:16 2022
Timers Off: Mon Apr 18 00:02:17 2022

Wall Time:        0.68 seconds

                                                       Time (seconds)
Module                                       User      System        Wall        Calls

--------------------------------------------------------------------------------------

**************************************************************************************

Host: HP-Pavilion-Gaming-Laptop-15-ec1xxx

Timers On : Mon Apr 18 00:03:04 2022
Timers Off: Mon Apr 18 00:03:21 2022

Wall Time:       17.55 seconds

                                                       Time (seconds)
Module                                       User      System        Wall        Calls
Libint2ERI::Libint2ERI              :      0.000u      0.000s      0.000w      2 calls

--------------------------------------------------------------------------------------
Libint2ERI::Libint2ERI              :      0.000u      0.000s      0.000w      2 calls

**************************************************************************************

Host: B450-AORUS-PRO-WIFI

Timers On : Mon Apr 18 10:02:25 2022
Timers Off: Mon Apr 18 10:02:26 2022

Wall Time:        0.92 seconds

                                                       Time (seconds)
Module                                       User      System        Wall        Calls

--------------------------------------------------------------------------------------

**************************************************************************************

Host: B450-AORUS-PRO-WIFI

Timers On : Mon Apr 18 10:02:46 2022
Timers Off: Mon Apr 18 10:02:59 2022

Wall Time:       12.74 seconds

                                                       Time (seconds)
Module                                       User      System        Wall        Calls
Libint2ERI::Libint2ERI              :      0.000u      0.000s      0.007w      2 calls

--------------------------------------------------------------------------------------
Libint2ERI::Libint2ERI              :      0.000u      0.000s      0.007w      2 calls

**************************************************************************************

Host: B450-AORUS-PRO-WIFI

Timers On : Mon Apr 18 10:03:28 2022
Timers Off: Mon Apr 18 10:03:40 2022

Wall Time:       12.27 seconds

                                                       Time (seconds)
Module                                       User      System        Wall        Calls
Libint2ERI::Libint2ERI              :      0.000u      0.000s      0.000w      2 calls

--------------------------------------------------------------------------------------
Libint2ERI::Libint2ERI              :      0.000u      0.000s      0.000w      2 calls

**************************************************************************************

Host: B450-AORUS-PRO-WIFI

Timers On : Mon Apr 18 10:14:18 2022
Timers Off: Mon Apr 18 10:14:39 2022

Wall Time:       21.14 seconds

                                                       Time (seconds)
Module                                       User      System        Wall        Calls
Libint2ERI::Libint2ERI              :      0.000u      0.000s      0.000w      2 calls

--------------------------------------------------------------------------------------
Libint2ERI::Libint2ERI              :      0.000u      0.000s      0.000w      2 calls

**************************************************************************************

Host: B450-AORUS-PRO-WIFI

Timers On : Mon Apr 18 10:26:12 2022
Timers Off: Mon Apr 18 10:26:33 2022

Wall Time:       21.00 seconds

                                                       Time (seconds)
Module                                       User      System        Wall        Calls
Libint2ERI::Libint2ERI              :      0.000u      0.000s      0.000w      2 calls

--------------------------------------------------------------------------------------
Libint2ERI::Libint2ERI              :      0.000u      0.000s      0.000w      2 calls

**************************************************************************************

Host: B450-AORUS-PRO-WIFI

Timers On : Mon Apr 18 12:31:07 2022
Timers Off: Mon Apr 18 12:31:28 2022

Wall Time:       21.16 seconds

                                                       Time (seconds)
Module                                       User      System        Wall        Calls
Libint2ERI::Libint2ERI              :      0.000u      0.000s      0.000w      2 calls

--------------------------------------------------------------------------------------
Libint2ERI::Libint2ERI              :      0.000u      0.000s      0.000w      2 calls

**************************************************************************************

Host: B450-AORUS-PRO-WIFI

Timers On : Mon Apr 18 12:31:47 2022
Timers Off: Mon Apr 18 12:32:08 2022

Wall Time:       21.80 seconds

                                                       Time (seconds)
Module                                       User      System        Wall        Calls
Libint2ERI::Libint2ERI              :      0.000u      0.000s      0.000w      2 calls

--------------------------------------------------------------------------------------
Libint2ERI::Libint2ERI              :      0.000u      0.000s      0.000w      2 calls

**************************************************************************************

Host: B450-AORUS-PRO-WIFI

Timers On : Mon Apr 18 12:43:43 2022
Timers Off: Mon Apr 18 12:44:04 2022

Wall Time:       20.83 seconds

                                                       Time (seconds)
Module                                       User      System        Wall        Calls
Libint2ERI::Libint2ERI              :      0.000u      0.000s      0.000w      2 calls

--------------------------------------------------------------------------------------
Libint2ERI::Libint2ERI              :      0.000u      0.000s      0.000w      2 calls

**************************************************************************************

Host: B450-AORUS-PRO-WIFI

Timers On : Mon Apr 18 12:44:31 2022
Timers Off: Mon Apr 18 12:44:52 2022

Wall Time:       21.02 seconds

                                                       Time (seconds)
Module                                       User      System        Wall        Calls
Libint2ERI::Libint2ERI              :      0.000u      0.000s      0.000w      2 calls

--------------------------------------------------------------------------------------
Libint2ERI::Libint2ERI              :      0.000u      0.000s      0.000w      2 calls

**************************************************************************************

Host: B450-AORUS-PRO-WIFI

Timers On : Mon Apr 18 12:46:11 2022
Timers Off: Mon Apr 18 12:46:32 2022

Wall Time:       21.03 seconds

                                                       Time (seconds)
Module                                       User      System        Wall        Calls
Libint2ERI::Libint2ERI              :      0.000u      0.000s      0.000w      2 calls

--------------------------------------------------------------------------------------
Libint2ERI::Libint2ERI              :      0.000u      0.000s      0.000w      2 calls

**************************************************************************************

Host: B450-AORUS-PRO-WIFI

Timers On : Mon Apr 18 12:46:47 2022
Timers Off: Mon Apr 18 12:47:09 2022

Wall Time:       21.13 seconds

                                                       Time (seconds)
Module                                       User      System        Wall        Calls
Libint2ERI::Libint2ERI              :      0.000u      0.000s      0.000w      2 calls

--------------------------------------------------------------------------------------
Libint2ERI::Libint2ERI              :      0.000u      0.000s      0.000w      2 calls

**************************************************************************************

Host: B450-AORUS-PRO-WIFI

Timers On : Mon Apr 18 12:47:39 2022
Timers Off: Mon Apr 18 12:48:00 2022

Wall Time:       21.05 seconds

                                                       Time (seconds)
Module                                       User      System        Wall        Calls
Libint2ERI::Libint2ERI              :      0.000u      0.000s      0.000w      2 calls

--------------------------------------------------------------------------------------
Libint2ERI::Libint2ERI              :      0.000u      0.000s      0.000w      2 calls

**************************************************************************************

Host: B450-AORUS-PRO-WIFI

Timers On : Mon Apr 18 12:49:11 2022
Timers Off: Mon Apr 18 12:49:33 2022

Wall Time:       21.96 seconds

                                                       Time (seconds)
Module                                       User      System        Wall        Calls
Libint2ERI::Libint2ERI              :      0.000u      0.000s      0.000w      2 calls

--------------------------------------------------------------------------------------
Libint2ERI::Libint2ERI              :      0.000u      0.000s      0.000w      2 calls

**************************************************************************************

Host: B450-AORUS-PRO-WIFI

Timers On : Mon Apr 18 12:52:18 2022
Timers Off: Mon Apr 18 12:52:39 2022

Wall Time:       21.11 seconds

                                                       Time (seconds)
Module                                       User      System        Wall        Calls
Libint2ERI::Libint2ERI              :      0.000u      0.000s      0.000w      2 calls

--------------------------------------------------------------------------------------
Libint2ERI::Libint2ERI              :      0.000u      0.000s      0.000w      2 calls

**************************************************************************************

Host: B450-AORUS-PRO-WIFI

Timers On : Mon Apr 18 12:54:10 2022
Timers Off: Mon Apr 18 12:54:31 2022

Wall Time:       21.00 seconds

                                                       Time (seconds)
Module                                       User      System        Wall        Calls
Libint2ERI::Libint2ERI              :      0.000u      0.000s      0.000w      2 calls

--------------------------------------------------------------------------------------
Libint2ERI::Libint2ERI              :      0.000u      0.000s      0.000w      2 calls

**************************************************************************************

Host: B450-AORUS-PRO-WIFI

Timers On : Mon Apr 18 12:55:10 2022
Timers Off: Mon Apr 18 12:55:22 2022

Wall Time:       12.41 seconds

                                                       Time (seconds)
Module                                       User      System        Wall        Calls
Libint2ERI::Libint2ERI              :      0.000u      0.000s      0.000w      2 calls

--------------------------------------------------------------------------------------
Libint2ERI::Libint2ERI              :      0.000u      0.000s      0.000w      2 calls

**************************************************************************************

Host: B450-AORUS-PRO-WIFI

Timers On : Mon Apr 18 12:57:08 2022
Timers Off: Mon Apr 18 12:57:21 2022

Wall Time:       12.44 seconds

                                                       Time (seconds)
Module                                       User      System        Wall        Calls
Libint2ERI::Libint2ERI              :      0.000u      0.000s      0.000w      2 calls

--------------------------------------------------------------------------------------
Libint2ERI::Libint2ERI              :      0.000u      0.000s      0.000w      2 calls

**************************************************************************************

Host: B450-AORUS-PRO-WIFI

Timers On : Mon Apr 18 12:57:39 2022
Timers Off: Mon Apr 18 12:57:53 2022

Wall Time:       13.85 seconds

                                                       Time (seconds)
Module                                       User      System        Wall        Calls
Libint2ERI::Libint2ERI              :      0.000u      0.000s      0.000w      2 calls

--------------------------------------------------------------------------------------
Libint2ERI::Libint2ERI              :      0.000u      0.000s      0.000w      2 calls

**************************************************************************************

Host: B450-AORUS-PRO-WIFI

Timers On : Mon Apr 18 13:00:58 2022
Timers Off: Mon Apr 18 13:01:12 2022

Wall Time:       13.63 seconds

                                                       Time (seconds)
Module                                       User      System        Wall        Calls
Libint2ERI::Libint2ERI              :      0.000u      0.000s      0.000w      2 calls

--------------------------------------------------------------------------------------
Libint2ERI::Libint2ERI              :      0.000u      0.000s      0.000w      2 calls

**************************************************************************************

Host: B450-AORUS-PRO-WIFI

Timers On : Mon Apr 18 13:08:02 2022
Timers Off: Mon Apr 18 13:08:16 2022

Wall Time:       13.70 seconds

                                                       Time (seconds)
Module                                       User      System        Wall        Calls
Libint2ERI::Libint2ERI              :      0.000u      0.000s      0.000w      2 calls

--------------------------------------------------------------------------------------
Libint2ERI::Libint2ERI              :      0.000u      0.000s      0.000w      2 calls

**************************************************************************************

Host: B450-AORUS-PRO-WIFI

Timers On : Mon Apr 18 13:09:50 2022
Timers Off: Mon Apr 18 13:10:03 2022

Wall Time:       12.91 seconds

                                                       Time (seconds)
Module                                       User      System        Wall        Calls
Libint2ERI::Libint2ERI              :      0.000u      0.000s      0.000w      2 calls

--------------------------------------------------------------------------------------
Libint2ERI::Libint2ERI              :      0.000u      0.000s      0.000w      2 calls

**************************************************************************************

Host: B450-AORUS-PRO-WIFI

Timers On : Mon Apr 18 13:10:58 2022
Timers Off: Mon Apr 18 13:11:11 2022

Wall Time:       12.87 seconds

                                                       Time (seconds)
Module                                       User      System        Wall        Calls
Libint2ERI::Libint2ERI              :      0.000u      0.000s      0.000w      2 calls

--------------------------------------------------------------------------------------
Libint2ERI::Libint2ERI              :      0.000u      0.000s      0.000w      2 calls

**************************************************************************************

Host: B450-AORUS-PRO-WIFI

Timers On : Mon Apr 18 13:15:13 2022
Timers Off: Mon Apr 18 13:15:14 2022

Wall Time:        0.52 seconds

                                                       Time (seconds)
Module                                       User      System        Wall        Calls

--------------------------------------------------------------------------------------

**************************************************************************************

Host: B450-AORUS-PRO-WIFI

Timers On : Mon Apr 18 13:15:30 2022
Timers Off: Mon Apr 18 13:15:51 2022

Wall Time:       21.21 seconds

                                                       Time (seconds)
Module                                       User      System        Wall        Calls
Libint2ERI::Libint2ERI              :      0.000u      0.000s      0.000w      2 calls

--------------------------------------------------------------------------------------
Libint2ERI::Libint2ERI              :      0.000u      0.000s      0.000w      2 calls

**************************************************************************************

Host: B450-AORUS-PRO-WIFI

Timers On : Mon Apr 18 13:23:25 2022
Timers Off: Mon Apr 18 13:23:26 2022

Wall Time:        0.89 seconds

                                                       Time (seconds)
Module                                       User      System        Wall        Calls
Libint2ERI::Libint2ERI              :      0.000u      0.000s      0.000w      2 calls

--------------------------------------------------------------------------------------
Libint2ERI::Libint2ERI              :      0.000u      0.000s      0.000w      2 calls

**************************************************************************************

Host: B450-AORUS-PRO-WIFI

Timers On : Mon Apr 18 13:23:40 2022
Timers Off: Mon Apr 18 13:23:53 2022

Wall Time:       12.70 seconds

                                                       Time (seconds)
Module                                       User      System        Wall        Calls
Libint2ERI::Libint2ERI              :      0.000u      0.000s      0.000w      2 calls

--------------------------------------------------------------------------------------
Libint2ERI::Libint2ERI              :      0.000u      0.000s      0.000w      2 calls

**************************************************************************************

Host: B450-AORUS-PRO-WIFI

Timers On : Mon Apr 18 13:26:03 2022
Timers Off: Mon Apr 18 13:26:16 2022

Wall Time:       12.75 seconds

                                                       Time (seconds)
Module                                       User      System        Wall        Calls
Libint2ERI::Libint2ERI              :      0.000u      0.000s      0.000w      2 calls

--------------------------------------------------------------------------------------
Libint2ERI::Libint2ERI              :      0.000u      0.000s      0.000w      2 calls

**************************************************************************************

Host: B450-AORUS-PRO-WIFI

Timers On : Mon Apr 18 13:30:46 2022
Timers Off: Mon Apr 18 13:30:59 2022

Wall Time:       12.73 seconds

                                                       Time (seconds)
Module                                       User      System        Wall        Calls
Libint2ERI::Libint2ERI              :      0.000u      0.000s      0.000w      2 calls

--------------------------------------------------------------------------------------
Libint2ERI::Libint2ERI              :      0.000u      0.000s      0.000w      2 calls

**************************************************************************************

Host: B450-AORUS-PRO-WIFI

Timers On : Mon Apr 18 13:39:37 2022
Timers Off: Mon Apr 18 13:39:50 2022

Wall Time:       12.75 seconds

                                                       Time (seconds)
Module                                       User      System        Wall        Calls
Libint2ERI::Libint2ERI              :      0.000u      0.000s      0.000w      2 calls

--------------------------------------------------------------------------------------
Libint2ERI::Libint2ERI              :      0.000u      0.000s      0.000w      2 calls

**************************************************************************************

Host: B450-AORUS-PRO-WIFI

Timers On : Mon Apr 18 13:41:16 2022
Timers Off: Mon Apr 18 13:41:31 2022

Wall Time:       15.59 seconds

                                                       Time (seconds)
Module                                       User      System        Wall        Calls
Libint2ERI::Libint2ERI              :      0.000u      0.000s      0.000w      2 calls

--------------------------------------------------------------------------------------
Libint2ERI::Libint2ERI              :      0.000u      0.000s      0.000w      2 calls

**************************************************************************************

Host: B450-AORUS-PRO-WIFI

Timers On : Mon Apr 18 13:46:36 2022
Timers Off: Mon Apr 18 13:47:12 2022

Wall Time:       36.05 seconds

                                                       Time (seconds)
Module                                       User      System        Wall        Calls
Libint2ERI::Libint2ERI              :      0.000u      0.000s      0.001w     12 calls

--------------------------------------------------------------------------------------
Libint2ERI::Libint2ERI              :      0.000u      0.000s      0.001w     12 calls

**************************************************************************************

Host: B450-AORUS-PRO-WIFI

Timers On : Mon Apr 18 13:48:12 2022
Timers Off: Mon Apr 18 13:48:49 2022

Wall Time:       36.99 seconds

                                                       Time (seconds)
Module                                       User      System        Wall        Calls
Libint2ERI::Libint2ERI              :      0.000u      0.000s      0.001w     12 calls

--------------------------------------------------------------------------------------
Libint2ERI::Libint2ERI              :      0.000u      0.000s      0.001w     12 calls

**************************************************************************************

Host: B450-AORUS-PRO-WIFI

Timers On : Mon Apr 18 13:49:30 2022
Timers Off: Mon Apr 18 13:50:08 2022

Wall Time:       37.48 seconds

                                                       Time (seconds)
Module                                       User      System        Wall        Calls
Libint2ERI::Libint2ERI              :      0.000u      0.000s      0.001w     12 calls

--------------------------------------------------------------------------------------
Libint2ERI::Libint2ERI              :      0.000u      0.000s      0.001w     12 calls

**************************************************************************************

Host: B450-AORUS-PRO-WIFI

Timers On : Mon Apr 18 13:50:42 2022
Timers Off: Mon Apr 18 13:51:23 2022

Wall Time:       41.34 seconds

                                                       Time (seconds)
Module                                       User      System        Wall        Calls
Libint2ERI::Libint2ERI              :      0.000u      0.000s      0.001w     12 calls

--------------------------------------------------------------------------------------
Libint2ERI::Libint2ERI              :      0.000u      0.000s      0.001w     12 calls

**************************************************************************************

Host: B450-AORUS-PRO-WIFI

Timers On : Mon Apr 18 13:52:16 2022
Timers Off: Mon Apr 18 13:52:31 2022

Wall Time:       15.62 seconds

                                                       Time (seconds)
Module                                       User      System        Wall        Calls
Libint2ERI::Libint2ERI              :      0.000u      0.000s      0.000w      4 calls

--------------------------------------------------------------------------------------
Libint2ERI::Libint2ERI              :      0.000u      0.000s      0.000w      4 calls

**************************************************************************************

Host: B450-AORUS-PRO-WIFI

Timers On : Mon Apr 18 13:53:39 2022
Timers Off: Mon Apr 18 13:54:41 2022

Wall Time:       62.51 seconds

                                                       Time (seconds)
Module                                       User      System        Wall        Calls
Libint2ERI::Libint2ERI              :      0.000u      0.000s      0.001w     12 calls

--------------------------------------------------------------------------------------
Libint2ERI::Libint2ERI              :      0.000u      0.000s      0.001w     12 calls

**************************************************************************************

Host: B450-AORUS-PRO-WIFI

Timers On : Mon Apr 18 14:22:29 2022
Timers Off: Mon Apr 18 14:22:42 2022

Wall Time:       12.92 seconds

                                                       Time (seconds)
Module                                       User      System        Wall        Calls
Libint2ERI::Libint2ERI              :      0.000u      0.000s      0.000w      2 calls

--------------------------------------------------------------------------------------
Libint2ERI::Libint2ERI              :      0.000u      0.000s      0.000w      2 calls

**************************************************************************************

Host: B450-AORUS-PRO-WIFI

Timers On : Mon Apr 18 14:23:02 2022
Timers Off: Mon Apr 18 14:23:16 2022

Wall Time:       14.16 seconds

                                                       Time (seconds)
Module                                       User      System        Wall        Calls
Libint2ERI::Libint2ERI              :      0.000u      0.000s      0.000w      2 calls

--------------------------------------------------------------------------------------
Libint2ERI::Libint2ERI              :      0.000u      0.000s      0.000w      2 calls

**************************************************************************************

Host: B450-AORUS-PRO-WIFI

Timers On : Mon Apr 18 14:33:48 2022
Timers Off: Mon Apr 18 14:33:59 2022

Wall Time:       11.50 seconds

                                                       Time (seconds)
Module                                       User      System        Wall        Calls
Libint2ERI::Libint2ERI              :      0.000u      0.000s      0.000w      2 calls

--------------------------------------------------------------------------------------
Libint2ERI::Libint2ERI              :      0.000u      0.000s      0.000w      2 calls

**************************************************************************************

Host: B450-AORUS-PRO-WIFI

Timers On : Mon Apr 18 14:36:01 2022
Timers Off: Mon Apr 18 14:36:12 2022

Wall Time:       11.35 seconds

                                                       Time (seconds)
Module                                       User      System        Wall        Calls
Libint2ERI::Libint2ERI              :      0.000u      0.000s      0.000w      2 calls

--------------------------------------------------------------------------------------
Libint2ERI::Libint2ERI              :      0.000u      0.000s      0.000w      2 calls

**************************************************************************************

Host: B450-AORUS-PRO-WIFI

Timers On : Mon Apr 18 16:15:57 2022
Timers Off: Mon Apr 18 16:16:09 2022

Wall Time:       11.59 seconds

                                                       Time (seconds)
Module                                       User      System        Wall        Calls
Libint2ERI::Libint2ERI              :      0.000u      0.000s      0.000w      2 calls

--------------------------------------------------------------------------------------
Libint2ERI::Libint2ERI              :      0.000u      0.000s      0.000w      2 calls

**************************************************************************************

Host: B450-AORUS-PRO-WIFI

Timers On : Mon Apr 18 16:31:54 2022
Timers Off: Mon Apr 18 16:31:54 2022

Wall Time:        0.17 seconds

                                                       Time (seconds)
Module                                       User      System        Wall        Calls

--------------------------------------------------------------------------------------

**************************************************************************************

Host: B450-AORUS-PRO-WIFI

Timers On : Mon Apr 18 17:05:53 2022
Timers Off: Mon Apr 18 17:06:09 2022

Wall Time:       15.80 seconds

                                                       Time (seconds)
Module                                       User      System        Wall        Calls
Libint2ERI::Libint2ERI              :      0.000u      0.000s      0.001w     16 calls

--------------------------------------------------------------------------------------
Libint2ERI::Libint2ERI              :      0.000u      0.000s      0.001w     16 calls

**************************************************************************************

Host: B450-AORUS-PRO-WIFI

Timers On : Mon Apr 18 17:06:36 2022
Timers Off: Mon Apr 18 17:06:52 2022

Wall Time:       15.92 seconds

                                                       Time (seconds)
Module                                       User      System        Wall        Calls
Libint2ERI::Libint2ERI              :      0.000u      0.000s      0.001w     16 calls

--------------------------------------------------------------------------------------
Libint2ERI::Libint2ERI              :      0.000u      0.000s      0.001w     16 calls

**************************************************************************************

Host: B450-AORUS-PRO-WIFI

Timers On : Mon Apr 18 17:07:46 2022
Timers Off: Mon Apr 18 17:08:59 2022

Wall Time:       73.40 seconds

                                                       Time (seconds)
Module                                       User      System        Wall        Calls
Libint2ERI::Libint2ERI              :      0.017u      0.000s      0.001w     16 calls

--------------------------------------------------------------------------------------
Libint2ERI::Libint2ERI              :      0.017u      0.000s      0.001w     16 calls

**************************************************************************************

Host: B450-AORUS-PRO-WIFI

Timers On : Mon Apr 18 17:38:37 2022
Timers Off: Mon Apr 18 17:39:31 2022

Wall Time:       54.09 seconds

                                                       Time (seconds)
Module                                       User      System        Wall        Calls
Libint2ERI::Libint2ERI              :      0.000u      0.000s      0.001w     18 calls

--------------------------------------------------------------------------------------
Libint2ERI::Libint2ERI              :      0.000u      0.000s      0.001w     18 calls

**************************************************************************************

Host: B450-AORUS-PRO-WIFI

Timers On : Mon Apr 18 17:41:06 2022
Timers Off: Mon Apr 18 17:43:48 2022

Wall Time:      161.49 seconds

                                                       Time (seconds)
Module                                       User      System        Wall        Calls
Libint2ERI::Libint2ERI              :      0.000u      0.000s      0.001w     18 calls

--------------------------------------------------------------------------------------
Libint2ERI::Libint2ERI              :      0.000u      0.000s      0.001w     18 calls

**************************************************************************************

Host: B450-AORUS-PRO-WIFI

Timers On : Mon Apr 18 17:53:58 2022
Timers Off: Mon Apr 18 17:54:14 2022

Wall Time:       15.84 seconds

                                                       Time (seconds)
Module                                       User      System        Wall        Calls
Libint2ERI::Libint2ERI              :      0.000u      0.000s      0.001w     16 calls

--------------------------------------------------------------------------------------
Libint2ERI::Libint2ERI              :      0.000u      0.000s      0.001w     16 calls

**************************************************************************************

Host: B450-AORUS-PRO-WIFI

Timers On : Mon Apr 18 17:55:52 2022
Timers Off: Mon Apr 18 17:56:05 2022

Wall Time:       13.48 seconds

                                                       Time (seconds)
Module                                       User      System        Wall        Calls
Libint2ERI::Libint2ERI              :      0.000u      0.000s      0.000w      8 calls

--------------------------------------------------------------------------------------
Libint2ERI::Libint2ERI              :      0.000u      0.000s      0.000w      8 calls

**************************************************************************************

Host: B450-AORUS-PRO-WIFI

Timers On : Mon Apr 18 17:58:27 2022
Timers Off: Mon Apr 18 17:58:43 2022

Wall Time:       15.92 seconds

                                                       Time (seconds)
Module                                       User      System        Wall        Calls
Libint2ERI::Libint2ERI              :      0.000u      0.000s      0.001w     16 calls

--------------------------------------------------------------------------------------
Libint2ERI::Libint2ERI              :      0.000u      0.000s      0.001w     16 calls

**************************************************************************************

Host: B450-AORUS-PRO-WIFI

Timers On : Mon Apr 18 18:02:45 2022
Timers Off: Mon Apr 18 18:03:01 2022

Wall Time:       16.08 seconds

                                                       Time (seconds)
Module                                       User      System        Wall        Calls
Libint2ERI::Libint2ERI              :      0.000u      0.000s      0.001w     16 calls

--------------------------------------------------------------------------------------
Libint2ERI::Libint2ERI              :      0.000u      0.000s      0.001w     16 calls

**************************************************************************************

Host: B450-AORUS-PRO-WIFI

Timers On : Mon Apr 18 18:03:20 2022
Timers Off: Mon Apr 18 18:07:32 2022

Wall Time:      252.28 seconds

                                                       Time (seconds)
Module                                       User      System        Wall        Calls
Libint2ERI::Libint2ERI              :      0.000u      0.000s      0.001w     16 calls

--------------------------------------------------------------------------------------
Libint2ERI::Libint2ERI              :      0.000u      0.000s      0.001w     16 calls

**************************************************************************************

Host: B450-AORUS-PRO-WIFI

Timers On : Mon Apr 18 18:18:07 2022
Timers Off: Mon Apr 18 18:23:07 2022

Wall Time:      299.68 seconds

                                                       Time (seconds)
Module                                       User      System        Wall        Calls
Libint2ERI::Libint2ERI              :      0.000u      0.000s      0.001w     16 calls

--------------------------------------------------------------------------------------
Libint2ERI::Libint2ERI              :      0.000u      0.000s      0.001w     16 calls

**************************************************************************************

Host: B450-AORUS-PRO-WIFI

Timers On : Mon Apr 18 18:25:34 2022
Timers Off: Mon Apr 18 18:28:27 2022

Wall Time:      173.14 seconds

                                                       Time (seconds)
Module                                       User      System        Wall        Calls
Libint2ERI::Libint2ERI              :      0.017u      0.000s      0.001w     16 calls

--------------------------------------------------------------------------------------
Libint2ERI::Libint2ERI              :      0.017u      0.000s      0.001w     16 calls

**************************************************************************************

Host: B450-AORUS-PRO-WIFI

Timers On : Mon Apr 18 18:41:27 2022
Timers Off: Mon Apr 18 18:45:19 2022

Wall Time:      232.04 seconds

                                                       Time (seconds)
Module                                       User      System        Wall        Calls
Libint2ERI::Libint2ERI              :      0.000u      0.000s      0.001w     16 calls

--------------------------------------------------------------------------------------
Libint2ERI::Libint2ERI              :      0.000u      0.000s      0.001w     16 calls

**************************************************************************************

Host: HP-Pavilion-Gaming-Laptop-15-ec1xxx

Timers On : Mon Apr 18 22:09:54 2022
Timers Off: Mon Apr 18 22:14:32 2022

Wall Time:      277.55 seconds

                                                       Time (seconds)
Module                                       User      System        Wall        Calls
Libint2ERI::Libint2ERI              :      0.000u      0.017s      0.002w     16 calls

--------------------------------------------------------------------------------------
Libint2ERI::Libint2ERI              :      0.000u      0.017s      0.002w     16 calls

**************************************************************************************

Host: HP-Pavilion-Gaming-Laptop-15-ec1xxx

Timers On : Tue Apr 19 00:15:45 2022
Timers Off: Tue Apr 19 00:16:01 2022

Wall Time:       16.47 seconds

                                                       Time (seconds)
Module                                       User      System        Wall        Calls
Libint2ERI::Libint2ERI              :      0.000u      0.000s      0.005w      1 calls

--------------------------------------------------------------------------------------
Libint2ERI::Libint2ERI              :      0.000u      0.000s      0.005w      1 calls

**************************************************************************************

Host: HP-Pavilion-Gaming-Laptop-15-ec1xxx

Timers On : Tue Apr 19 00:17:10 2022
Timers Off: Tue Apr 19 00:17:26 2022

Wall Time:       16.29 seconds

                                                       Time (seconds)
Module                                       User      System        Wall        Calls
Libint2ERI::Libint2ERI              :      0.000u      0.000s      0.004w      1 calls

--------------------------------------------------------------------------------------
Libint2ERI::Libint2ERI              :      0.000u      0.000s      0.004w      1 calls

**************************************************************************************

Host: HP-Pavilion-Gaming-Laptop-15-ec1xxx

Timers On : Tue Apr 19 00:22:25 2022
Timers Off: Tue Apr 19 00:22:42 2022

Wall Time:       16.28 seconds

[...]
Libint2ERI::Libint2ERI              :      0.033u      0.000s      0.014w      2 calls

**************************************************************************************

Host: HP-Pavilion-Gaming-Laptop-15-ec1xxx

Timers On : Sun Apr 24 22:24:29 2022
Timers Off: Sun Apr 24 22:25:05 2022

Wall Time:       35.86 seconds

                                                       Time (seconds)
Module                                       User      System        Wall        Calls
Libint2ERI::Libint2ERI              :      0.017u      0.017s      0.014w      2 calls

--------------------------------------------------------------------------------------
Libint2ERI::Libint2ERI              :      0.017u      0.017s      0.014w      2 calls

**************************************************************************************

Host: HP-Pavilion-Gaming-Laptop-15-ec1xxx

Timers On : Sun Apr 24 22:26:33 2022
Timers Off: Sun Apr 24 22:27:02 2022

Wall Time:       28.89 seconds

                                                       Time (seconds)
Module                                       User      System        Wall        Calls
Libint2ERI::Libint2ERI              :      0.017u      0.017s      0.014w      2 calls

--------------------------------------------------------------------------------------
Libint2ERI::Libint2ERI              :      0.017u      0.017s      0.014w      2 calls

**************************************************************************************

Host: HP-Pavilion-Gaming-Laptop-15-ec1xxx

Timers On : Sun Apr 24 22:27:17 2022
Timers Off: Sun Apr 24 22:27:51 2022

Wall Time:       34.54 seconds

                                                       Time (seconds)
Module                                       User      System        Wall        Calls
Libint2ERI::Libint2ERI              :      0.017u      0.017s      0.014w      2 calls

--------------------------------------------------------------------------------------
Libint2ERI::Libint2ERI              :      0.017u      0.017s      0.014w      2 calls

**************************************************************************************

Host: HP-Pavilion-Gaming-Laptop-15-ec1xxx

Timers On : Sun Apr 24 22:27:54 2022
Timers Off: Sun Apr 24 22:28:28 2022

Wall Time:       34.24 seconds

                                                       Time (seconds)
Module                                       User      System        Wall        Calls
Libint2ERI::Libint2ERI              :      0.017u      0.000s      0.014w      2 calls

--------------------------------------------------------------------------------------
Libint2ERI::Libint2ERI              :      0.017u      0.000s      0.014w      2 calls

**************************************************************************************

Host: HP-Pavilion-Gaming-Laptop-15-ec1xxx

Timers On : Sun Apr 24 22:28:48 2022
Timers Off: Sun Apr 24 22:29:20 2022

Wall Time:       32.61 seconds

                                                       Time (seconds)
Module                                       User      System        Wall        Calls
Libint2ERI::Libint2ERI              :      0.000u      0.000s      0.014w      2 calls

--------------------------------------------------------------------------------------
Libint2ERI::Libint2ERI              :      0.000u      0.000s      0.014w      2 calls

**************************************************************************************

Host: HP-Pavilion-Gaming-Laptop-15-ec1xxx

Timers On : Sun Apr 24 22:30:13 2022
Timers Off: Sun Apr 24 22:30:34 2022

Wall Time:       21.70 seconds

                                                       Time (seconds)
Module                                       User      System        Wall        Calls
Libint2ERI::Libint2ERI              :      0.033u      0.000s      0.014w      2 calls

--------------------------------------------------------------------------------------
Libint2ERI::Libint2ERI              :      0.033u      0.000s      0.014w      2 calls

**************************************************************************************

Host: HP-Pavilion-Gaming-Laptop-15-ec1xxx

Timers On : Sun Apr 24 22:30:49 2022
Timers Off: Sun Apr 24 22:31:26 2022

Wall Time:       37.55 seconds

                                                       Time (seconds)
Module                                       User      System        Wall        Calls
Libint2ERI::Libint2ERI              :      0.017u      0.017s      0.014w      2 calls

--------------------------------------------------------------------------------------
Libint2ERI::Libint2ERI              :      0.017u      0.017s      0.014w      2 calls

**************************************************************************************

Host: HP-Pavilion-Gaming-Laptop-15-ec1xxx

Timers On : Sun Apr 24 22:32:44 2022
Timers Off: Sun Apr 24 22:33:19 2022

Wall Time:       34.39 seconds

                                                       Time (seconds)
Module                                       User      System        Wall        Calls
Libint2ERI::Libint2ERI              :      0.033u      0.000s      0.014w      2 calls

--------------------------------------------------------------------------------------
Libint2ERI::Libint2ERI              :      0.033u      0.000s      0.014w      2 calls

**************************************************************************************

Host: HP-Pavilion-Gaming-Laptop-15-ec1xxx

Timers On : Sun Apr 24 22:34:04 2022
Timers Off: Sun Apr 24 22:34:39 2022

Wall Time:       34.08 seconds

                                                       Time (seconds)
Module                                       User      System        Wall        Calls
Libint2ERI::Libint2ERI              :      0.017u      0.017s      0.014w      2 calls

--------------------------------------------------------------------------------------
Libint2ERI::Libint2ERI              :      0.017u      0.017s      0.014w      2 calls

**************************************************************************************

Host: HP-Pavilion-Gaming-Laptop-15-ec1xxx

Timers On : Sun Apr 24 22:35:25 2022
Timers Off: Sun Apr 24 22:35:59 2022

Wall Time:       34.06 seconds

                                                       Time (seconds)
Module                                       User      System        Wall        Calls
Libint2ERI::Libint2ERI              :      0.033u      0.000s      0.014w      2 calls

--------------------------------------------------------------------------------------
Libint2ERI::Libint2ERI              :      0.033u      0.000s      0.014w      2 calls

**************************************************************************************

Host: HP-Pavilion-Gaming-Laptop-15-ec1xxx

Timers On : Sun Apr 24 22:36:57 2022
Timers Off: Sun Apr 24 22:37:15 2022

Wall Time:       18.12 seconds

                                                       Time (seconds)
Module                                       User      System        Wall        Calls
Libint2ERI::Libint2ERI              :      0.017u      0.000s      0.014w      2 calls

--------------------------------------------------------------------------------------
Libint2ERI::Libint2ERI              :      0.017u      0.000s      0.014w      2 calls

**************************************************************************************

Host: HP-Pavilion-Gaming-Laptop-15-ec1xxx

Timers On : Sun Apr 24 22:39:37 2022
Timers Off: Sun Apr 24 22:40:08 2022

Wall Time:       31.78 seconds

                                                       Time (seconds)
Module                                       User      System        Wall        Calls
Libint2ERI::Libint2ERI              :      0.017u      0.000s      0.014w      2 calls

--------------------------------------------------------------------------------------
Libint2ERI::Libint2ERI              :      0.017u      0.000s      0.014w      2 calls

**************************************************************************************

Host: HP-Pavilion-Gaming-Laptop-15-ec1xxx

Timers On : Sun Apr 24 22:41:53 2022
Timers Off: Sun Apr 24 22:42:28 2022

Wall Time:       35.06 seconds

                                                       Time (seconds)
Module                                       User      System        Wall        Calls
Libint2ERI::Libint2ERI              :      0.033u      0.017s      0.023w      2 calls

--------------------------------------------------------------------------------------
Libint2ERI::Libint2ERI              :      0.033u      0.017s      0.023w      2 calls

**************************************************************************************

Host: HP-Pavilion-Gaming-Laptop-15-ec1xxx

Timers On : Sun Apr 24 22:43:52 2022
Timers Off: Sun Apr 24 22:47:41 2022

Wall Time:      229.21 seconds

                                                       Time (seconds)
Module                                       User      System        Wall        Calls
Libint2ERI::Libint2ERI              :      0.033u      0.000s      0.026w      1 calls

--------------------------------------------------------------------------------------
Libint2ERI::Libint2ERI              :      0.033u      0.000s      0.026w      1 calls

**************************************************************************************

Host: HP-Pavilion-Gaming-Laptop-15-ec1xxx

Timers On : Sun Apr 24 22:58:55 2022
Timers Off: Sun Apr 24 22:59:32 2022

Wall Time:       37.15 seconds

                                                       Time (seconds)
Module                                       User      System        Wall        Calls
Libint2ERI::Libint2ERI              :      0.033u      0.017s      0.027w      1 calls

--------------------------------------------------------------------------------------
Libint2ERI::Libint2ERI              :      0.033u      0.017s      0.027w      1 calls

**************************************************************************************

Host: HP-Pavilion-Gaming-Laptop-15-ec1xxx

Timers On : Sun Apr 24 22:59:47 2022
Timers Off: Sun Apr 24 23:03:29 2022

Wall Time:      222.68 seconds

                                                       Time (seconds)
Module                                       User      System        Wall        Calls
Libint2ERI::Libint2ERI              :      0.033u      0.000s      0.026w      1 calls

--------------------------------------------------------------------------------------
Libint2ERI::Libint2ERI              :      0.033u      0.000s      0.026w      1 calls

**************************************************************************************

Host: HP-Pavilion-Gaming-Laptop-15-ec1xxx

Timers On : Sun Apr 24 23:11:20 2022
Timers Off: Sun Apr 24 23:11:58 2022

Wall Time:       37.97 seconds

                                                       Time (seconds)
Module                                       User      System        Wall        Calls
Libint2ERI::Libint2ERI              :      0.050u      0.000s      0.023w      2 calls

--------------------------------------------------------------------------------------
Libint2ERI::Libint2ERI              :      0.050u      0.000s      0.023w      2 calls

**************************************************************************************

Host: HP-Pavilion-Gaming-Laptop-15-ec1xxx

Timers On : Sun Apr 24 23:17:33 2022
Timers Off: Sun Apr 24 23:18:07 2022

Wall Time:       33.51 seconds

                                                       Time (seconds)
Module                                       User      System        Wall        Calls
Libint2ERI::Libint2ERI              :      0.033u      0.000s      0.023w      2 calls

--------------------------------------------------------------------------------------
Libint2ERI::Libint2ERI              :      0.033u      0.000s      0.023w      2 calls

**************************************************************************************

Host: HP-Pavilion-Gaming-Laptop-15-ec1xxx

Timers On : Sun Apr 24 23:21:34 2022
Timers Off: Sun Apr 24 23:22:27 2022

Wall Time:       53.05 seconds

                                                       Time (seconds)
Module                                       User      System        Wall        Calls
Libint2ERI::Libint2ERI              :      0.017u      0.000s      0.023w      2 calls

--------------------------------------------------------------------------------------
Libint2ERI::Libint2ERI              :      0.017u      0.000s      0.023w      2 calls

**************************************************************************************

Host: HP-Pavilion-Gaming-Laptop-15-ec1xxx

Timers On : Sun Apr 24 23:23:58 2022
Timers Off: Sun Apr 24 23:24:48 2022

Wall Time:       49.93 seconds

                                                       Time (seconds)
Module                                       User      System        Wall        Calls
Libint2ERI::Libint2ERI              :      0.033u      0.000s      0.023w      2 calls

--------------------------------------------------------------------------------------
Libint2ERI::Libint2ERI              :      0.033u      0.000s      0.023w      2 calls

**************************************************************************************

Host: HP-Pavilion-Gaming-Laptop-15-ec1xxx

Timers On : Sun Apr 24 23:29:27 2022
Timers Off: Sun Apr 24 23:29:48 2022

Wall Time:       20.72 seconds

                                                       Time (seconds)
Module                                       User      System        Wall        Calls
Libint2ERI::Libint2ERI              :      0.033u      0.017s      0.023w      2 calls

--------------------------------------------------------------------------------------
Libint2ERI::Libint2ERI              :      0.033u      0.017s      0.023w      2 calls

**************************************************************************************

Host: HP-Pavilion-Gaming-Laptop-15-ec1xxx

Timers On : Sun Apr 24 23:31:12 2022
Timers Off: Sun Apr 24 23:31:39 2022

Wall Time:       27.57 seconds

                                                       Time (seconds)
Module                                       User      System        Wall        Calls
Libint2ERI::Libint2ERI              :      0.033u      0.017s      0.022w      2 calls

--------------------------------------------------------------------------------------
Libint2ERI::Libint2ERI              :      0.033u      0.017s      0.022w      2 calls

**************************************************************************************

Host: HP-Pavilion-Gaming-Laptop-15-ec1xxx

Timers On : Sun Apr 24 23:59:52 2022
Timers Off: Mon Apr 25 00:00:26 2022

Wall Time:       33.67 seconds

                                                       Time (seconds)
Module                                       User      System        Wall        Calls
Libint2ERI::Libint2ERI              :      0.033u      0.000s      0.023w      2 calls

--------------------------------------------------------------------------------------
Libint2ERI::Libint2ERI              :      0.033u      0.000s      0.023w      2 calls

**************************************************************************************

Host: HP-Pavilion-Gaming-Laptop-15-ec1xxx

Timers On : Mon Apr 25 00:00:41 2022
Timers Off: Mon Apr 25 00:01:14 2022

Wall Time:       33.80 seconds

                                                       Time (seconds)
Module                                       User      System        Wall        Calls
Libint2ERI::Libint2ERI              :      0.033u      0.000s      0.022w      2 calls

--------------------------------------------------------------------------------------
Libint2ERI::Libint2ERI              :      0.033u      0.000s      0.022w      2 calls

**************************************************************************************

Host: HP-Pavilion-Gaming-Laptop-15-ec1xxx

Timers On : Mon Apr 25 00:02:00 2022
Timers Off: Mon Apr 25 00:02:34 2022

Wall Time:       33.83 seconds

                                                       Time (seconds)
Module                                       User      System        Wall        Calls
Libint2ERI::Libint2ERI              :      0.033u      0.017s      0.023w      2 calls

--------------------------------------------------------------------------------------
Libint2ERI::Libint2ERI              :      0.033u      0.017s      0.023w      2 calls

**************************************************************************************

Host: HP-Pavilion-Gaming-Laptop-15-ec1xxx

Timers On : Mon Apr 25 00:03:02 2022
Timers Off: Mon Apr 25 00:03:54 2022

Wall Time:       52.28 seconds

                                                       Time (seconds)
Module                                       User      System        Wall        Calls
Libint2ERI::Libint2ERI              :      0.050u      0.017s      0.024w      2 calls

--------------------------------------------------------------------------------------
Libint2ERI::Libint2ERI              :      0.050u      0.017s      0.024w      2 calls

**************************************************************************************

Host: HP-Pavilion-Gaming-Laptop-15-ec1xxx

Timers On : Mon Apr 25 00:07:37 2022
Timers Off: Mon Apr 25 00:08:31 2022

Wall Time:       53.62 seconds

                                                       Time (seconds)
Module                                       User      System        Wall        Calls
Libint2ERI::Libint2ERI              :      0.033u      0.017s      0.024w      2 calls

--------------------------------------------------------------------------------------
Libint2ERI::Libint2ERI              :      0.033u      0.017s      0.024w      2 calls

**************************************************************************************

Host: HP-Pavilion-Gaming-Laptop-15-ec1xxx

Timers On : Mon Apr 25 00:17:15 2022
Timers Off: Mon Apr 25 00:18:04 2022

Wall Time:       49.27 seconds

                                                       Time (seconds)
Module                                       User      System        Wall        Calls
Libint2ERI::Libint2ERI              :      0.033u      0.000s      0.023w      2 calls

--------------------------------------------------------------------------------------
Libint2ERI::Libint2ERI              :      0.033u      0.000s      0.023w      2 calls

**************************************************************************************

Host: HP-Pavilion-Gaming-Laptop-15-ec1xxx

Timers On : Mon Apr 25 00:22:03 2022
Timers Off: Mon Apr 25 00:22:55 2022

Wall Time:       52.18 seconds

                                                       Time (seconds)
Module                                       User      System        Wall        Calls
Libint2ERI::Libint2ERI              :      0.033u      0.000s      0.023w      2 calls

--------------------------------------------------------------------------------------
Libint2ERI::Libint2ERI              :      0.033u      0.000s      0.023w      2 calls

**************************************************************************************

Host: HP-Pavilion-Gaming-Laptop-15-ec1xxx

Timers On : Mon Apr 25 00:29:03 2022
Timers Off: Mon Apr 25 00:29:36 2022

Wall Time:       33.12 seconds

                                                       Time (seconds)
Module                                       User      System        Wall        Calls
Libint2ERI::Libint2ERI              :      0.033u      0.000s      0.022w      2 calls

--------------------------------------------------------------------------------------
Libint2ERI::Libint2ERI              :      0.033u      0.000s      0.022w      2 calls

**************************************************************************************
