
Host: HP-Pavilion-Gaming-Laptop-15-ec1xxx

Timers On : Mon Jul 12 00:32:44 2021
Timers Off: Mon Jul 12 00:33:20 2021

Wall Time:       36.37 seconds

                                                       Time (seconds)
Module                                       User      System        Wall        Calls

--------------------------------------------------------------------------------------

**************************************************************************************

Host: HP-Pavilion-Gaming-Laptop-15-ec1xxx

Timers On : Mon Jul 12 00:34:00 2021
Timers Off: Mon Jul 12 00:34:51 2021

Wall Time:       51.39 seconds

                                                       Time (seconds)
Module                                       User      System        Wall        Calls

--------------------------------------------------------------------------------------

**************************************************************************************

Host: HP-Pavilion-Gaming-Laptop-15-ec1xxx

Timers On : Mon Jul 12 00:37:03 2021
Timers Off: Mon Jul 12 00:37:55 2021

Wall Time:       51.40 seconds

                                                       Time (seconds)
Module                                       User      System        Wall        Calls

--------------------------------------------------------------------------------------

**************************************************************************************

Host: HP-Pavilion-Gaming-Laptop-15-ec1xxx

Timers On : Mon Jul 12 00:41:19 2021
Timers Off: Mon Jul 12 00:42:10 2021

Wall Time:       51.37 seconds

                                                       Time (seconds)
Module                                       User      System        Wall        Calls

--------------------------------------------------------------------------------------

**************************************************************************************

Host: HP-Pavilion-Gaming-Laptop-15-ec1xxx

Timers On : Mon Jul 12 00:54:20 2021
Timers Off: Mon Jul 12 00:55:00 2021

Wall Time:       40.12 seconds

                                                       Time (seconds)
Module                                       User      System        Wall        Calls

--------------------------------------------------------------------------------------

**************************************************************************************

Host: HP-Pavilion-Gaming-Laptop-15-ec1xxx

Timers On : Mon Jul 12 00:55:41 2021
Timers Off: Mon Jul 12 00:56:20 2021

Wall Time:       39.40 seconds

                                                       Time (seconds)
Module                                       User      System        Wall        Calls

--------------------------------------------------------------------------------------

**************************************************************************************

Host: HP-Pavilion-Gaming-Laptop-15-ec1xxx

Timers On : Mon Jul 12 00:57:20 2021
Timers Off: Mon Jul 12 00:58:00 2021

Wall Time:       39.99 seconds

                                                       Time (seconds)
Module                                       User      System        Wall        Calls

--------------------------------------------------------------------------------------

**************************************************************************************

Host: HP-Pavilion-Gaming-Laptop-15-ec1xxx

Timers On : Mon Jul 12 00:59:29 2021
Timers Off: Mon Jul 12 01:00:24 2021

Wall Time:       54.52 seconds

                                                       Time (seconds)
Module                                       User      System        Wall        Calls

--------------------------------------------------------------------------------------

**************************************************************************************

Host: HP-Pavilion-Gaming-Laptop-15-ec1xxx

Timers On : Mon Jul 12 01:02:03 2021
Timers Off: Mon Jul 12 01:02:58 2021

Wall Time:       54.19 seconds

                                                       Time (seconds)
Module                                       User      System        Wall        Calls

--------------------------------------------------------------------------------------

**************************************************************************************

Host: HP-Pavilion-Gaming-Laptop-15-ec1xxx

Timers On : Mon Jul 12 01:07:04 2021
Timers Off: Mon Jul 12 01:07:59 2021

Wall Time:       54.98 seconds

                                                       Time (seconds)
Module                                       User      System        Wall        Calls

--------------------------------------------------------------------------------------

**************************************************************************************

Host: HP-Pavilion-Gaming-Laptop-15-ec1xxx

Timers On : Mon Jul 12 01:08:40 2021
Timers Off: Mon Jul 12 01:09:35 2021

Wall Time:       55.09 seconds

                                                       Time (seconds)
Module                                       User      System        Wall        Calls

--------------------------------------------------------------------------------------

**************************************************************************************
