
Host: HP-Pavilion-Gaming-Laptop-15-ec1xxx

Timers On : Fri Mar 12 01:40:01 2021
Timers Off: Fri Mar 12 01:41:55 2021

Wall Time:      113.96 seconds

                                                       Time (seconds)
Module                                       User      System        Wall        Calls

--------------------------------------------------------------------------------------

**************************************************************************************

Host: HP-Pavilion-Gaming-Laptop-15-ec1xxx

Timers On : Fri Mar 12 01:41:56 2021
Timers Off: Fri Mar 12 01:42:28 2021

Wall Time:       31.72 seconds

                                                       Time (seconds)
Module                                       User      System        Wall        Calls

--------------------------------------------------------------------------------------

**************************************************************************************

Host: HP-Pavilion-Gaming-Laptop-15-ec1xxx

Timers On : Fri Mar 12 01:42:29 2021
Timers Off: Fri Mar 12 01:44:32 2021

Wall Time:      123.39 seconds

                                                       Time (seconds)
Module                                       User      System        Wall        Calls

--------------------------------------------------------------------------------------

**************************************************************************************

Host: HP-Pavilion-Gaming-Laptop-15-ec1xxx

Timers On : Fri Mar 12 01:44:34 2021
Timers Off: Fri Mar 12 01:46:00 2021

Wall Time:       86.05 seconds

                                                       Time (seconds)
Module                                       User      System        Wall        Calls

--------------------------------------------------------------------------------------

**************************************************************************************

Host: HP-Pavilion-Gaming-Laptop-15-ec1xxx

Timers On : Fri Mar 12 02:30:11 2021
Timers Off: Fri Mar 12 02:34:40 2021

Wall Time:      268.76 seconds

                                                       Time (seconds)
Module                                       User      System        Wall        Calls

--------------------------------------------------------------------------------------

**************************************************************************************
