pynof
Energy PNOF8 CC-PVDZ
Number of atoms                            I                3
Charge                                     I                0
Multiplicity                               I                1
Number of electrons                        I               10
Number of alpha electrons                  I                5
Number of beta electrons                   I                5
Number of basis functions                  I               24
Number of independant functions            I               20
Number of contracted shells                I               12
Highest angular momentum                   I                2
Largest degree of contraction              I                8
Number of primitive shells                 I               32
Atomic numbers                             I   N=           3
           8           1           1
Nuclear Charges                            R   N=           3
  8.00000000e+00  1.00000000e+00  1.00000000e+00
Current cartesian coordinates              R   N=           9
  0.00000000e+00  0.00000000e+00  1.20336934e-01 -4.33342760e-17  1.41540487e+00
 -9.54917232e-01  4.33342760e-17 -1.41540487e+00 -9.54917232e-01
Shell types                                I   N=          12
           0           0           0           1           1          -2
           0           0           1           0           0           1
Number of primitives per shell             I   N=          12
           8           8           1           3           1           1
           3           1           1           3           1           1
Shell to atom map                          I   N=          12
           1           1           1           1           1           1
           2           2           2           3           3           3
Coordinates of each shell                  R   N=          36
  0.00000000e+00  0.00000000e+00  1.20336934e-01  0.00000000e+00  0.00000000e+00
  1.20336934e-01  0.00000000e+00  0.00000000e+00  1.20336934e-01  0.00000000e+00
  0.00000000e+00  1.20336934e-01  0.00000000e+00  0.00000000e+00  1.20336934e-01
  0.00000000e+00  0.00000000e+00  1.20336934e-01 -4.33342760e-17  1.41540487e+00
 -9.54917232e-01 -4.33342760e-17  1.41540487e+00 -9.54917232e-01 -4.33342760e-17
  1.41540487e+00 -9.54917232e-01  4.33342760e-17 -1.41540487e+00 -9.54917232e-01
  4.33342760e-17 -1.41540487e+00 -9.54917232e-01  4.33342760e-17 -1.41540487e+00
 -9.54917232e-01
Total Energy                               R     -7.624166373200008e+01
Primitive exponents                        R   N=          32
  1.17200000e+04  1.75900000e+03  4.00800000e+02  1.13700000e+02  3.70300000e+01
  1.32700000e+01  5.02500000e+00  1.01300000e+00  1.17200000e+04  1.75900000e+03
  4.00800000e+02  1.13700000e+02  3.70300000e+01  1.32700000e+01  5.02500000e+00
  1.01300000e+00  3.02300000e-01  1.77000000e+01  3.85400000e+00  1.04600000e+00
  2.75300000e-01  1.18500000e+00  1.30100000e+01  1.96200000e+00  4.44600000e-01
  1.22000000e-01  7.27000000e-01  1.30100000e+01  1.96200000e+00  4.44600000e-01
  1.22000000e-01  7.27000000e-01
Contraction coefficients                   R   N=          32
  7.10000000e-04  5.47000000e-03  2.78370000e-02  1.04800000e-01  2.83062000e-01
  4.48719000e-01  2.70952000e-01  1.54580000e-02 -1.60000000e-04 -1.26300000e-03
 -6.26700000e-03 -2.57160000e-02 -7.09240000e-02 -1.65411000e-01 -1.16955000e-01
  5.57368000e-01  1.00000000e+00  4.30180000e-02  2.28913000e-01  5.08728000e-01
  1.00000000e+00  1.00000000e+00  1.96850000e-02  1.37977000e-01  4.78148000e-01
  1.00000000e+00  1.00000000e+00  1.96850000e-02  1.37977000e-01  4.78148000e-01
  1.00000000e+00  1.00000000e+00
Alpha Orbital Energies                     R   N=          24
 -2.05668472e+01 -1.31248653e+00 -7.11619052e-01 -7.01618675e-01 -5.27384184e-01
 -1.64570602e-02 -1.10729798e-02 -8.55387991e-03 -3.04789229e-02 -9.71062809e-03
 -1.03274262e-03 -3.10893028e-02 -7.68086719e-03 -1.49440787e-03 -1.87951580e-03
 -8.40875336e-03 -8.41804221e-03 -1.83381709e-04 -2.25636423e-04 -1.82614642e-04
  0.00000000e+00  0.00000000e+00  0.00000000e+00  0.00000000e+00
Alpha MO coefficients                      R   N=         576
  1.00186641e+00  1.35745568e-03 -5.93594773e-03  5.80821235e-06 -4.61441484e-05
 -2.00793442e-03  6.04673988e-06 -1.01927477e-05 -2.93517433e-05  2.85775182e-05
 -1.46597457e-06 -9.77340811e-06 -2.67918788e-04 -6.52732237e-06 -2.04203363e-03
  3.62020860e-04 -6.87192977e-06  9.78376709e-04 -7.16718539e-04 -1.88833016e-03
  3.74225468e-04  8.52733178e-06 -9.36522191e-04 -6.94387619e-04  2.99189004e-03
 -4.68606751e-01 -4.49680627e-01 -4.87462290e-04  1.07138918e-02 -7.98597897e-02
 -3.62592427e-04  4.41430694e-03 -1.21673640e-01  4.22902184e-03  2.60091958e-05
 -6.11654923e-04  2.22359022e-03 -3.23513851e-05 -1.23971459e-01  2.69428296e-03
 -7.50893468e-05  2.62519416e-02 -2.04721783e-02 -1.38584304e-01 -6.92784425e-04
  1.00352197e-05 -2.72227430e-02 -2.19132181e-02  1.22470518e-03 -4.06192677e-03
 -1.61965297e-01  3.79255210e-03  3.50251568e-01 -3.85521718e-01  3.05135996e-03
  1.47039335e-01 -2.36673330e-01  1.24422564e-02 -1.15432953e-04 -1.87902332e-02
 -3.53448147e-03 -4.97479972e-06  4.25594999e-01  8.84341162e-02  1.58956520e-04
 -4.34168653e-02  1.96871594e-02 -5.39233969e-02 -3.14321760e-02  2.06225213e-04
  1.28760374e-02 -2.41276311e-02  8.78275954e-04 -1.86776169e-02 -1.75171441e-01
 -4.54469576e-03 -3.48144713e-01 -3.90650205e-01 -3.65257757e-03 -1.46368399e-01
 -2.42580745e-01  1.25970019e-02  1.42852783e-04  1.86022168e-02 -3.43341338e-03
 -7.86122871e-06 -5.56284601e-02 -3.08334314e-02 -2.31218245e-04 -1.25563256e-02
 -2.46289265e-02  4.20849630e-01  8.63664478e-02 -2.10136830e-04  4.31285979e-02
  1.89462364e-02  1.09535514e-05  4.67932238e-04  6.24058129e-04 -6.28704225e-01
  4.74813301e-03  5.65910152e-04 -4.96591778e-01  1.96571768e-03  4.19427226e-04
 -2.10911720e-05  1.85755068e-02 -2.35494790e-04 -4.65717523e-06 -9.92258590e-08
  3.01214927e-03  7.41911698e-04 -3.19844394e-02 -1.68730069e-04  3.30021393e-04
 -3.21455300e-03 -7.75636875e-04 -3.20134307e-02 -2.02908203e-04 -2.84785691e-04
  2.16982878e-03  5.74821275e-03 -4.21868484e-03 -9.64117130e-01  5.51851266e-04
  3.89188702e-03  9.40927153e-01 -3.73241326e-03 -4.44761513e-03  2.55107571e-03
 -6.27037185e-02 -2.47047862e-03  1.60039056e-03  3.99359275e-04  7.35285119e-04
  3.89711617e-05  9.43569073e-02 -1.49341946e-03 -1.41797909e-03 -3.76873119e-03
  6.50025184e-04  9.41053457e-02  5.96668546e-04 -1.36840622e-03 -5.55674368e-01
 -1.32453578e+00  1.70005972e+00 -4.03724289e-03  1.50435511e-02 -4.00657079e-01
  6.42506278e-03 -2.08775346e-02  1.61775819e-01 -4.62820876e-02  9.03079748e-03
 -2.71561592e-02  3.42624169e-01  7.20096081e-02 -3.23097945e-01 -2.11551802e-02
  2.04579298e-02  5.02315708e-02 -5.69687803e-02 -3.25393278e-01 -1.98749431e-02
 -2.45535281e-02 -4.71770023e-02 -5.85166670e-02  3.28156141e-02  6.90119618e-02
 -1.49565458e-01  2.42422819e-03 -2.12924839e-02 -4.36345672e-02 -7.21185474e-03
  2.42146198e-02  1.28010580e-01  1.21196783e-01 -2.13537996e-02  2.87375787e-02
 -1.30539077e-01  8.25125775e-01  7.52894482e-02 -1.25293971e-02  2.17835597e-01
 -1.98275131e-02  7.81323989e-03  7.81039115e-02 -1.07872799e-02 -2.09030683e-01
  2.04789188e-02 -6.17728953e-03 -1.37877718e-01 -4.49829812e-01 -1.39673155e-01
 -1.34178013e-03  6.64407043e-01  5.18466311e-01  1.59973602e-03  5.76189958e-02
 -2.51185239e-02  8.21503622e-03 -1.91616090e-04  7.45775169e-02 -5.56959113e-02
  3.61445771e-04 -3.69347308e-02 -2.41905524e-02 -2.00201459e-04  6.05815699e-03
  4.70085679e-03  9.13518318e-01  9.89028131e-02  5.75945562e-05  1.22792122e-01
  5.70794760e-02  5.47621986e-02  1.94816291e-01  1.24449358e-01  3.85637720e-03
  7.42576125e-02  4.70814522e-01  5.24075884e-03 -1.58150721e-01 -6.59145084e-01
  2.75758114e-01  3.04627153e-02 -1.52914926e-01  4.55346648e-01  7.12503752e-02
 -2.84749379e-01  4.98552375e-02  1.47194138e-02 -1.00622617e-01 -1.66242851e-01
 -3.92756188e-01  1.08586357e-01 -3.34988108e-02  6.74152315e-02 -1.95661631e-01
  1.54584173e-01  4.02296709e-01  1.09278954e+00  4.63193353e-04  2.97943794e-01
 -4.60389058e-01 -1.17661541e-02  3.41812098e-01 -5.57471807e-01  1.40167719e-01
  1.24252333e-02 -5.44670536e-01 -4.89112292e-01  3.78550291e-02 -1.57988333e+00
  4.56728264e-01 -3.24697866e-02  1.14319807e+00 -6.38615802e-01 -3.90357605e-01
 -1.93838345e-02  5.93484005e-02 -3.32613222e-01 -2.49378318e-01 -1.43006076e-01
 -4.71864587e-01 -1.56275613e-01  3.28200549e-04 -6.21289883e-01  5.48141904e-01
 -7.08319997e-04 -4.28932700e-02 -2.59449092e-02  4.55513745e-03 -2.03841401e-05
 -6.58086912e-02 -5.59446802e-02  7.91289293e-04  8.95688100e-01  1.18736550e-01
 -6.45568581e-04 -1.03936942e-01  5.47814063e-02  3.61202186e-02 -2.70410053e-02
  1.26878166e-03  2.55092720e-03  1.23329468e-02 -3.79833026e-02 -1.16382724e-01
 -1.34447133e-01 -2.17685599e-03  3.88220877e-01 -1.22973848e-01  1.41994640e-02
 -6.63659249e-01  3.76441440e-01  2.58447757e-01  4.45306368e-02 -5.87628423e-01
 -1.94112035e-01 -5.09445211e-02  4.42074617e-01 -1.59824862e-01 -2.35290991e-02
 -1.82822332e-01 -3.54676658e-02  1.20840476e-02  2.97582361e-02  1.25432403e-04
  1.90160312e-02  9.00680039e-02 -1.56266372e-01 -3.02317436e-01  7.48059520e-01
  4.35901181e-04  5.25182755e-01  8.26266659e-02 -9.98999867e-04 -7.46626149e-01
 -4.46681858e-01 -1.94095706e-02  3.53438686e-04  4.28068509e-01 -2.91510066e-01
  3.55673536e-03 -1.11547111e-01  2.03708650e-01 -3.12293584e-03  1.64878896e-01
 -4.72457712e-01 -8.32672643e-01 -1.83150885e-01  4.32968857e-03  1.92836642e-01
  4.13661030e-01 -3.65201693e-01 -7.18051520e-01  1.63208565e+00  2.28696976e-04
 -2.46386335e-01  1.85683905e-01  1.40002291e-03  2.86637812e-01 -9.11468443e-01
 -1.47607844e-01 -4.91214605e-03 -1.36770128e-01 -7.25297978e-01 -2.61686293e-02
 -1.10238471e+00 -9.33252625e-02  1.45339100e-02 -1.89404566e-01  1.27162917e-01
 -8.96977896e-01  1.11686461e-01 -1.86926718e-02  2.97239690e-03 -2.83978468e-01
  4.55331408e-02  1.25049467e-01 -5.90767922e-02 -1.28638314e-02  2.00378692e-01
  1.69738912e-01  3.66105588e-02 -2.82566273e-01 -3.76766865e-01 -7.46022125e-01
  1.36310263e-01 -2.85631958e-01  2.07365531e-01  1.45648907e-01 -2.20736515e-02
  7.42800306e-03  1.48709832e-02  8.33413455e-02  6.26753288e-02 -1.38007161e-01
  4.74702420e-02 -5.56509415e-02 -9.99914146e-02  1.48588901e-01  1.36626644e-03
  6.62287202e-03  8.28907002e-03  8.78251702e-02  5.68120055e-02  3.09515663e-02
 -2.52691780e-01 -7.89347047e-02 -6.20092649e-02 -8.90479752e-02 -9.08336988e-01
 -8.40006485e-02  4.59144414e-02  1.65627284e-03 -2.30558862e-03 -1.44340452e-03
  1.44890403e-01  7.11094831e-03 -1.31195684e-03 -3.28919687e-02  1.02342280e-02
  1.41752519e-01 -1.18832021e-02  2.38461182e-02 -1.03374865e-01 -1.93342469e-01
  5.02041961e-01  1.39861498e-02  1.40139723e-02  6.07612424e-02 -2.05858919e-01
 -1.03701519e-01 -6.63932460e-01  4.29275345e-01  1.38696805e-01  2.25049632e-03
  1.02634666e-01 -4.93654616e-01 -2.88869094e-01 -3.56368185e-03  7.79136773e-01
  3.36486906e-01  4.64434188e-01 -3.97236761e-01  1.01403858e-02 -3.30293574e-01
 -2.56436816e-01  3.57310942e-01 -2.12340494e-02 -1.03002083e-01 -1.04642242e+00
  9.17799840e-04  4.36356916e-01  2.36397034e-01 -1.63381087e-02  6.81298184e-01
  6.53743883e-01 -2.24490530e-01  1.36125537e-02 -7.51537159e-01  2.22807962e-01
 -1.40274064e-01 -1.95007885e-01  1.33389639e-01  1.73650515e-01  1.68180500e-01
 -1.97858508e-01  1.59289074e+00 -1.75424415e-01 -1.37348076e-01  1.33991232e+00
  4.39960849e-01  1.62628193e-01  3.39058442e-01 -1.91195512e-01 -6.21555859e-03
 -8.06764660e-02 -2.13131077e-01  9.56643682e-02 -7.57749817e-01  5.58558877e-01
 -4.28897860e-01 -6.56925126e-02  3.49413064e-01 -2.31714967e-01 -3.77191351e-01
  7.08378925e-01 -2.45634402e-02  3.13219254e-01 -1.38207638e-01 -2.39708341e-01
 -4.64094639e-01  4.92707936e-02 -5.22530609e-01  5.10832907e-03 -9.18453906e-01
 -6.78992671e-02 -1.28423924e-01  4.28408673e-01  7.83611446e-03  1.34387723e-01
  8.30237675e-03 -1.10011341e-01 -6.99671482e-01 -2.74613795e-01  1.23389502e-01
  7.12342749e-02  9.31339926e-02  9.04483341e-03  2.00770261e-01  4.48961174e-01
 -6.59075101e-01 -1.09689060e-01  6.77373473e-01  5.08691509e-01 -6.86220448e-01
  4.15085057e-01  3.48443235e-01  4.11264820e-01 -3.28747091e-01  1.33835862e-01
  2.27172149e-01 -1.62192815e+00 -4.05619361e-02  1.13821072e-02  1.32153701e-01
  5.80631876e-01 -4.42433647e-01  3.67983746e-01  1.31057032e-01 -3.82089939e-01
  7.84177452e-02  2.14884764e-01 -2.65324224e-02  3.73330826e-01  8.58916491e-01
 -6.01495129e-01 -2.76839603e-01  6.20242440e-01  3.13561410e-02  4.18992860e-01
 -6.60854980e-01  3.11997671e-01  2.48624998e-01 -1.98293349e-01 -3.64455381e-01
  1.59405648e+00 -1.14171880e-02 -3.07611878e-02 -3.14656546e-02  1.63970019e-01
 -1.38743264e+00 -6.10919312e-01  9.34751457e-02 -1.07533939e-01  2.42525507e-01
 -9.04477776e-02  2.36949379e-02  2.27635088e-03  8.58222477e-01 -2.03787496e-01
  4.10938566e-02  3.69411541e-01 -4.94534409e-01 -2.05900381e+00 -1.52788634e-01
 -6.03579830e-01 -5.99338841e-01 -1.98101970e-01 -3.49026961e-01  1.91794774e+00
 -3.05782959e-02  7.79849378e-02 -9.22556714e-02  4.38466486e-01  1.08767258e+00
 -7.49284329e-01  1.09874325e-01 -2.88670090e-01 -2.85448420e-01 -1.53399739e-01
 -7.56955315e-02 -7.23695401e-01 -1.59863763e+00 -3.89208070e-01  7.53487635e-01
 -5.86264371e-01 -5.62963944e-02  3.03517568e-01 -5.64222859e-01 -1.64933831e-01
  1.96352409e-01
Total SCF Density                          R   N=          300
  2.01057822e+00  8.05337107e-03  4.60135500e-01 -2.11753755e-02  4.14520341e-01
  5.38848018e-01 -1.01226785e-05 -7.35549169e-06  3.21733778e-05  7.92483598e-01
  2.17961243e-04  1.37479670e-04 -9.18993340e-04 -1.94340922e-04  5.00587427e-01
 -7.80480930e-03  8.52301630e-02  3.22128338e-01 -3.98468394e-05 -1.29364567e-05
  6.22046866e-01  2.09965876e-07 -6.99172364e-06  4.01529793e-06  6.06651764e-01
 -1.41525272e-05  3.56841195e-05  4.98212827e-01  1.85267387e-04  2.57218067e-04
 -1.83774401e-04 -2.85162110e-06  2.02049781e-01  1.21766309e-04 -4.47153016e-05
  8.78313286e-02 -2.24618901e-03  1.22996930e-01  2.68166592e-01  3.01821140e-05
  4.77497040e-04  3.83150933e-01 -3.57708428e-05  2.21223290e-04  2.60712718e-01
  2.50737427e-04 -4.27024309e-03 -1.26930415e-02 -1.26889029e-05  4.36905065e-05
 -1.95750955e-02  2.26152989e-05 -7.33371063e-05 -1.22705238e-02  3.55467109e-03
 -1.74852005e-05 -4.34786659e-05  4.72643625e-05 -2.26775889e-02 -4.16779822e-07
  5.78361764e-06 -1.80859458e-02 -3.53012284e-05 -3.43234933e-05 -1.58101852e-05
  3.76643377e-03  1.47674728e-05  1.44642677e-04 -1.13667447e-04  1.66114680e-06
 -2.49096544e-02 -3.46327542e-05 -3.97732413e-05 -8.97768204e-03  1.53193110e-04
 -3.81992854e-06 -7.97223260e-06  3.72869589e-03 -1.09399564e-03 -2.85237690e-03
  3.75857838e-03 -4.52907579e-06  1.05985773e-05  4.11585399e-03  3.18899021e-05
 -2.61664785e-04  1.65735780e-03 -4.22516042e-04  2.75979577e-05 -1.25813407e-04
  3.04657616e-03 -1.04785604e-04 -1.88098529e-04  3.40302339e-04 -2.14756394e-06
 -5.86393325e-06 -3.96353830e-05 -5.29625732e-07 -4.18895957e-07  3.31969263e-05
  6.34259638e-05 -1.98349510e-06 -7.87260059e-06  2.23065041e-05  3.14978835e-03
 -5.36818795e-03  1.08009568e-01 -1.50870782e-02  5.82509254e-05  3.17178350e-01
 -2.50442928e-01  9.55882313e-05  1.36247644e-01 -1.39971635e-01  8.38747500e-03
 -1.08502377e-05 -1.93238693e-02 -5.08461350e-03 -7.72071690e-05  4.16059009e-01
  7.44150991e-04 -2.70725921e-03 -2.02816182e-02  1.66094574e-05  8.02782392e-02
 -4.25583608e-02  1.33686622e-05  3.47611652e-02 -2.78037324e-02  1.35504163e-03
 -1.09409134e-05 -4.32870298e-03 -3.89842114e-04  1.08958450e-05  7.88171843e-02
  1.78929478e-02 -5.01862282e-05 -3.07346133e-05  1.72720301e-04  3.87446419e-02
 -4.25797659e-05  1.28581033e-05  3.23080510e-02 -2.78290654e-06  2.49340484e-05
  1.80434914e-05 -1.72786260e-03  1.12963155e-05  1.42413307e-05  8.14454800e-04
 -5.50528186e-05 -1.09002127e-05  2.42485009e-03  2.23762351e-03 -2.28184358e-02
 -3.99174706e-03 -1.56200853e-05 -1.92981260e-02  3.68337737e-02 -5.09144365e-05
 -8.11855295e-03  1.97851092e-02 -1.67682908e-03 -1.46414570e-05  1.49627207e-03
  5.60497705e-04  1.63182267e-05 -4.45671784e-02 -6.60378314e-03 -1.14224378e-05
  6.48075680e-03 -1.58702181e-03  1.95377349e-02  1.92250637e-02 -1.10217320e-05
  2.90321210e-02  7.90591337e-03 -2.64667894e-05  1.29562765e-02  8.10213006e-03
 -7.69926773e-04 -3.55723841e-06 -1.52652078e-03 -4.37353765e-04 -3.25506315e-05
  2.60478334e-02  4.75535175e-03  3.52745443e-06 -2.54105573e-03  3.39617218e-03
 -5.40550293e-03  1.08176099e-01 -1.27085608e-02 -3.25709936e-05 -3.17316662e-01
 -2.51046861e-01 -1.26357916e-04 -1.36618599e-01 -1.40891191e-01  8.20231882e-03
 -4.59525400e-05  1.94550162e-02 -5.31957104e-03 -7.88626174e-05 -5.48021972e-02
 -3.63336044e-02 -2.39654869e-05 -1.31330187e-02 -1.60316172e-02  4.14146351e-01
  7.09648519e-04 -2.68066739e-03 -1.95264677e-02 -5.18596608e-05 -7.92500810e-02
 -4.14370007e-02 -3.67197038e-05 -3.40260869e-02 -2.69767563e-02  1.42554417e-03
  1.51310494e-05  4.26303256e-03 -2.38991585e-04  8.23784086e-06 -3.64687709e-02
 -1.08895637e-02  2.87692429e-06  4.75810175e-04 -5.41761974e-03  7.69767105e-02
  1.70048227e-02  6.63529776e-05  7.68450431e-05 -1.93782508e-04  3.87814359e-02
 -2.63177769e-05 -2.19695185e-05  3.23394056e-02  2.36290109e-05 -1.44254077e-05
 -3.06141698e-05 -1.72113108e-03  6.10009118e-06 -3.90403519e-05 -8.07246131e-04
  4.16064555e-05  2.24376880e-05  1.98774256e-03  3.92318079e-05 -4.51278967e-06
  6.76002273e-05 -1.27988321e-05  2.42102910e-03 -2.16726907e-03  2.28487231e-02
  4.43629502e-03 -1.81726446e-05 -1.95959764e-02 -3.70131159e-02 -4.68416054e-06
 -8.93760448e-03 -2.01975035e-02  1.58118864e-03 -5.54406588e-06  1.47637846e-03
 -6.74253611e-04  1.41798257e-05  1.30097483e-02 -6.07596438e-04  1.10541812e-05
 -3.82290436e-03 -5.12818820e-04  4.43471594e-02  6.84931423e-03 -1.65229843e-05
  5.96965098e-03 -1.56373224e-03  1.96414927e-02  1.94456976e-02  3.59464738e-05
 -2.91641586e-02  7.78066167e-03 -4.19906292e-06 -1.31469130e-02  8.13307056e-03
 -8.78338748e-04 -1.87073480e-05  1.68160707e-03 -5.61203330e-04 -5.57131110e-05
 -1.57848927e-02 -5.54187141e-03 -1.38553208e-05  4.66224617e-04 -8.21630125e-04
  2.59404942e-02  4.72538237e-03  3.14402961e-05  2.33327371e-03  3.44918614e-03
Natural orbital occupancies                R   N=           20
  9.99985990e-01  9.95941937e-01  9.86428053e-01  9.86473371e-01  9.88582424e-01
  5.84898572e-03  3.37045652e-03  2.19813383e-03  1.06796059e-02  2.63604224e-03
  2.10981336e-04  1.12041559e-02  2.01888517e-03  3.48905563e-04  3.89987916e-04
  1.87879233e-03  1.78928256e-03  4.38191219e-06  5.29152802e-06  4.33655919e-06
